26
energy: -724.829784716985
 C         -1.16255403    0.20536800   -0.46961701
 C         -0.97965503   -0.95252299    0.55497402
 O          0.07436300    0.89243901   -0.71134502
 C         -2.23811293    1.19693005   -0.03799600
 H         -1.44760001   -0.24226101   -1.42454505
 C          1.02169597    0.83174998    0.35070300
 C          1.51515305   -0.62049901    0.57783598
 H          0.56377298    1.20950997    1.27317405
 O          2.11928010    1.59957898    0.00260500
 C          0.36159000   -1.56811595    0.34272400
 H          1.86602497   -0.68205702    1.61510396
 O          2.56361794   -0.97652000   -0.31066400
 O          0.43633601   -2.36596298   -0.76384199
 O         -2.07406497   -1.86135805    0.46694100
 H         -1.02188599   -0.54166198    1.56561100
 H         -1.99188995    1.59840095    0.95190698
 O         -3.53741598    0.60464299   -0.03390000
 H         -2.26658893    2.02603102   -0.74494398
 H         -3.45747209   -0.29564899    0.31135601
 H         -2.00553799   -2.34520888   -0.36585101
 H          1.34753597   -2.32313204   -1.09855795
 C          1.89976704    3.01427102    0.03158100
 H          2.86071706    3.48081207   -0.16768900
 H          1.53857803    3.31931996    1.01649201
 H          1.18050897    3.31091189   -0.73148400
 H          3.08124495   -0.18157300   -0.49386400
