26
energy: -724.83665053712
 C         -1.36926794    0.27278900   -0.71172100
 C         -1.11137795   -1.20211899   -0.36845899
 O         -0.13688301    0.98719698   -0.88162398
 C         -2.35940909    0.96940601    0.20913801
 H         -1.82444000    0.29330599   -1.70253599
 C          0.79218799    0.91879898    0.19696000
 C          1.16865504   -0.52844298    0.52110499
 H          0.36455601    1.39496696    1.08440995
 O          1.95174205    1.57486296   -0.20418601
 C         -0.06839200   -1.32183099    0.67896301
 H          1.75850105   -0.53773397    1.44153202
 O          1.95207298   -1.10160005   -0.55947900
 O          0.06318300   -2.47557306    1.39279699
 O         -0.72874898   -1.94048798   -1.56184804
 H         -2.04877591   -1.65600300   -0.04166600
 H         -2.41566205    2.02138209   -0.08525900
 O         -1.98307705    0.85097098    1.58210099
 H         -3.34157991    0.51483601    0.04301000
 H         -2.64165807    1.30716002    2.11612511
 H          0.20597900   -1.74758399   -1.72185194
 H         -0.75016201   -2.99431992    1.34161305
 C          1.82931495    2.99602699   -0.29374599
 H          1.13793504    3.28153205   -1.08702695
 H          2.82062888    3.38101912   -0.51892298
 H          1.48353899    3.40894794    0.65763098
 H          2.61174989   -0.44317701   -0.81672698
