26
energy: -724.830574485316
 C         -1.24599099   -0.02022200   -0.67183101
 C         -1.07102895   -1.11986494    0.41787499
 O         -0.03405800    0.73280799   -0.86076200
 C         -2.43193102    0.89004397   -0.42375600
 H         -1.41766703   -0.53290701   -1.62064004
 C          0.80191898    0.83384800    0.28705201
 C          1.37336099   -0.55234301    0.68401498
 H          0.22508501    1.24319601    1.12232602
 O          1.87115800    1.65911901   -0.02274400
 C          0.33950201   -1.60757697    0.36915600
 H          1.58171201   -0.52054799    1.75972199
 O          2.56123996   -0.87140399   -0.02821900
 O          0.60597003   -2.41407800   -0.70308602
 O         -2.04654503   -2.13927889    0.24851599
 H         -1.26055503   -0.68410099    1.39862704
 H         -2.49549890    1.61538994   -1.23998106
 O         -2.27048993    1.55934203    0.82809901
 H         -3.34300089    0.28391200   -0.42744300
 H         -3.02223492    2.14459801    0.96259999
 H         -1.82975900   -2.63899112   -0.54808497
 H          1.54448605   -2.29731703   -0.92817301
 C          1.54689395    3.04960799   -0.12431500
 H          1.07897198    3.39582109    0.80014199
 H          0.87698901    3.23168302   -0.96452302
 H          2.48431301    3.57647991   -0.28103399
 H          3.00016308   -0.04152300   -0.25820500
