26
energy: -724.835836170131
 C         -0.99376798    0.42824000   -0.05055300
 C         -0.99182999   -1.03845096    0.41216201
 O         -0.02870000    1.14178705    0.72024602
 C         -2.33656406    1.10962200    0.16859800
 H         -0.74047101    0.46932900   -1.11420703
 C          1.32449400    0.79909998    0.46695399
 C          1.52580905   -0.67405999    0.02621700
 H          1.83500695    0.96598601    1.41814399
 O          1.88819695    1.61090696   -0.52540702
 C          0.40922999   -1.49818397    0.52706999
 H          2.46744394   -1.02184904    0.45811999
 O          1.59922504   -0.79248703   -1.41364396
 O          0.70662600   -2.75955296    0.93707699
 O         -1.80745900   -1.86079895   -0.46356800
 H         -1.50545001   -1.11135495    1.37756205
 H         -2.60823202    1.03650606    1.22769499
 O         -3.35700011    0.55652601   -0.65840602
 H         -2.24956489    2.16450691   -0.08997800
 H         -3.25552011   -0.40616000   -0.65375298
 H         -1.36622298   -1.92171896   -1.32114398
 H         -0.10055600   -3.24019289    1.16456401
 C          2.06174111    2.97735310   -0.14674500
 H          1.09878004    3.46095109    0.02064100
 H          2.57723904    3.46724200   -0.96868598
 H          2.66740608    3.04753399    0.76073802
 H          2.03127193    0.01013600   -1.73873496
