26
energy: -724.842584382084
 C         -1.06545401    0.58780801    0.06108200
 C         -0.98817497   -0.94783401    0.10780800
 O         -0.06879600    1.18436599    0.89645499
 C         -2.39727592    1.12018096    0.57771200
 H         -0.92017800    0.90282798   -0.97626102
 C          1.26476800    0.87277299    0.53671902
 C          1.49979997   -0.63407701    0.66043597
 H          1.88459396    1.42450905    1.24778795
 O          1.57878602    1.24236405   -0.77409703
 C          0.42209601   -1.39398396   -0.04291900
 H          1.49372303   -0.87690502    1.73129702
 O          2.79387093   -1.02301800    0.20550001
 O          0.59847701   -2.74380493   -0.14155200
 O         -1.78894603   -1.52938700   -0.92328697
 H         -1.37001204   -1.28235495    1.08921599
 H         -2.54631710    0.78929198    1.60568297
 O         -3.50274706    0.61232001   -0.17685901
 H         -2.38409209    2.21133089    0.56172401
 H         -3.57049704    1.10800302   -1.00079894
 H         -2.66802192   -1.13049805   -0.84185600
 H          1.54954302   -2.92597795   -0.11902700
 C          1.65359700    2.65229392   -0.98699898
 H          2.00419211    2.79717708   -2.00562692
 H          2.35899901    3.10826302   -0.28719100
 H          0.67442399    3.11954689   -0.86913401
 H          2.90528297   -0.67229700   -0.68851101
