26
energy: -724.834378955317
 C         -1.32012796    0.14367899   -0.78064197
 C         -1.00676799   -1.33177304   -0.44617501
 O         -0.10688100    0.89625299   -0.92669600
 C         -2.34209204    0.80087399    0.14448699
 H         -1.76804399    0.15571900   -1.77645195
 C          0.81541097    0.86167902    0.16006400
 C          1.21684694   -0.58277899    0.51521200
 H          0.37466601    1.34173906    1.03817999
 O          1.96594298    1.52965796   -0.24500300
 C         -0.01472800   -1.41234100    0.66684902
 H          1.78975999   -0.55538797    1.44809604
 O          2.00189900   -1.15104604   -0.54305601
 O         -0.55095702   -1.61764503    1.90875995
 O         -0.51761299   -2.00527406   -1.61566198
 H         -1.93359697   -1.82815099   -0.15746599
 H         -2.51288509    1.81831598   -0.20610100
 O         -1.96426296    0.91939998    1.51472402
 H         -3.28270411    0.24784499    0.04646700
 H         -1.83612204    0.04139800    1.89618194
 H          0.43558800   -1.83941805   -1.66205299
 H          0.12892801   -1.54428995    2.59230590
 C          1.82333100    2.94931602   -0.35286099
 H          2.80999994    3.34544206   -0.57857698
 H          1.46763206    3.36738205    0.59233999
 H          1.13078499    3.21332312   -1.15229797
 H          2.59742594   -0.46062601   -0.86551499
