60
energy: -1740.966269251825
 C          4.22559690   -0.23870499    2.37904310
 C          3.42469096   -0.59905797    1.13401401
 H          3.89478993   -0.86811000    3.21427798
 O          4.11152411    1.14403403    2.70619202
 H          5.28114986   -0.44302800    2.19556499
 O          3.77535510   -1.95457494    0.81956398
 C          1.90050495   -0.52498603    1.37510097
 H          3.70599508    0.06737600    0.31299001
 C          1.18079400   -1.02024603    0.13608900
 O          1.48985195    0.74529803    1.85743701
 H          1.67981398   -1.24053395    2.17307711
 C          3.16650295   -2.47906089   -0.34799099
 H          3.15949202    1.34633303    2.67594695
 O          1.06354201   -0.21817000   -0.95195800
 O          3.55172992   -1.80105495   -1.50913799
 H          1.44068003    1.40795398    1.11460805
 H          1.11504996    0.76848102   -0.74601901
 C          4.91799116   -2.01218295   -1.87194002
 C          1.62635195   -2.42059803   -0.23548900
 H          3.49706793   -3.52188206   -0.38818300
 H          1.35067105   -3.10143399    0.57096100
 O          1.00644004   -2.90636301   -1.41043997
 H          1.19610500   -2.27294993   -2.11754203
 C         -2.60730100   -0.60196298    0.40806699
 C         -2.23441792    0.87116998    0.62682700
 C         -3.21192908    1.77600002   -0.14179300
 H         -2.26647401    1.10252297    1.69459605
 H         -1.21380496    1.04802704    0.28601500
 C         -3.14321709    1.44699395   -1.64036000
 C         -3.52521992   -0.02386200   -1.85937297
 H         -3.82559991    2.09691191   -2.19700909
 H         -2.13452911    1.63404000   -2.01797795
 C         -2.54530406   -0.92761898   -1.09156096
 H         -2.80073190   -1.97890699   -1.24797904
 H         -1.52834105   -0.77753198   -1.45933700
 C         -4.03847218   -0.84094298    0.91925102
 S         -1.49137294   -1.71828902    1.37359798
 C         -4.63830280    1.53361499    0.37156701
 H         -2.93146896    2.82026696    0.02010700
 C         -5.01933622    0.06232700    0.15169901
 H         -4.70097923    1.78219795    1.43568897
 H         -5.34248590    2.18425488   -0.15613300
 H         -6.03147507   -0.11711300    0.52517301
 C         -4.95136213   -0.26822299   -1.34607005
 H         -4.31000519   -1.89121699    0.78116602
 H         -4.08987999   -0.62442303    1.98997998
 H         -5.23552704   -1.31212902   -1.51203895
 H         -3.47080112   -0.26500601   -2.92492604
 H         -5.66202307    0.35399300   -1.89892006
 H         -0.19631299   -1.30819595    0.70587701
 H          5.59325123   -1.58007598   -1.13047194
 H          5.06745577   -1.51943600   -2.83031511
 H          5.12695122   -3.08175707   -1.97251296
 O          1.32494998    2.25491595   -0.27709299
 O          0.05772800    3.44965911   -1.67558801
 C          0.08146600    4.06254578    0.64269298
 C          0.50121599    3.20933795   -0.54234999
 H         -0.45875001    3.44022489    1.35956705
 H         -0.55623299    4.88748598    0.33144999
 H          0.96513301    4.45145512    1.15212500
