60
energy: -1740.965161655992
 C          2.85758495   -0.10698800    3.04901695
 C          2.73342109   -0.51446903    1.59590304
 H          2.45148897    0.89295501    3.18405104
 O          4.22268915   -0.05909800    3.47017288
 H          2.28640199   -0.80491501    3.67205811
 O          3.27686501   -1.84472704    1.51330400
 C          1.27028894   -0.53588301    1.10441506
 H          3.32365990    0.16382700    0.97239101
 C          1.25404894   -1.06734002   -0.31928700
 O          0.62447101    0.70381999    1.30210400
 H          0.73699200   -1.26513398    1.72132802
 C          3.33306503   -2.38696599    0.20637999
 H          4.61220598   -0.92469001    3.28491807
 O          1.61334801   -0.25683701   -1.34554696
 O          4.17885780   -1.66648996   -0.64282501
 H          0.92483902    1.36670899    0.63666999
 H          1.49514496    0.73996699   -1.16451895
 C          5.56264114   -1.77553403   -0.30230999
 C          1.91987598   -2.42814493   -0.41675401
 H          3.70909500   -3.40615010    0.34173900
 H          1.34591901   -3.14238906    0.17509100
 O          1.95541501   -2.92814302   -1.74014997
 H          2.37519598   -2.25036502   -2.28957105
 C         -2.61732006   -0.67919898   -0.44340000
 C         -2.12605000    0.61768299   -1.10057902
 C         -3.07840705    1.77257895   -0.75068599
 H         -1.11990595    0.84633499   -0.75147802
 H         -2.07817292    0.48477900   -2.18433189
 C         -4.48638296    1.44508803   -1.26794302
 C         -4.98581123    0.15162601   -0.60838997
 H         -5.17059088    2.26830697   -1.03974700
 H         -4.46848679    1.32898605   -2.35616589
 C         -4.03062010   -1.00351501   -0.95809102
 H         -4.38571787   -1.93290699   -0.50354499
 H         -4.00568104   -1.15402997   -2.04085588
 C         -2.67269707   -0.49352399    1.08119094
 S         -1.52704895   -2.10334897   -0.89875698
 C         -3.12050104    1.95841300    0.77294803
 H         -2.71462893    2.68764901   -1.22529399
 C         -3.62296605    0.66475600    1.43187201
 H         -2.12419105    2.20883203    1.14806998
 H         -3.78306103    2.79082799    1.02986097
 H         -3.64727092    0.78918302    2.51839590
 C         -5.03136921    0.34051299    0.91492498
 H         -3.02351809   -1.41877306    1.54616106
 H         -1.67184997   -0.28528601    1.46101999
 H         -5.40724707   -0.56835198    1.39533305
 H         -5.98484802   -0.09202900   -0.98084301
 H         -5.72117710    1.15159202    1.16845703
 H         -0.17477299   -1.48401201   -0.56156403
 H          6.11953497   -1.26739597   -1.08677495
 H          5.86546087   -2.82646108   -0.25896800
 H          5.77064085   -1.29991305    0.65853000
 O          1.39214301    2.22077703   -0.75491500
 O          0.43632901    2.82295299   -2.68342900
 C          0.02065300    4.16246080   -0.73765302
 C          0.64747798    2.98953795   -1.47151601
 H         -0.61281103    4.75075579   -1.39845800
 H          0.80770600    4.79840088   -0.32646900
 H         -0.57067102    3.79413295    0.10250200
