60
energy: -1740.966091858493
 C          4.18862581    0.57270598    2.27550411
 C          3.25455999   -0.00715400    1.23304105
 H          4.39765406    1.61438596    2.04157901
 O          5.44622803   -0.10576400    2.29702592
 H          3.70830011    0.52385497    3.25954509
 O          3.03225994   -1.37471294    1.62043202
 C          1.90166700    0.72911298    1.17502904
 H          3.73455596    0.02310600    0.25070900
 C          0.98434103   -0.01121100    0.21146999
 O          2.04343009    2.10032701    0.89319402
 H          1.45140195    0.65066898    2.16938090
 C          2.25478911   -2.12713599    0.70562297
 H          5.26471090   -1.04528606    2.43672800
 O          1.12398005    0.18582600   -1.12020898
 O          2.85744810   -2.23528409   -0.55112600
 H          2.56437111    2.24318290    0.05425100
 H          1.25132096    1.15407395   -1.42780197
 C          4.05672503   -3.01209998   -0.54345101
 C          0.85891998   -1.48259306    0.54728502
 H          2.15818310   -3.11543107    1.16680396
 H          0.37320700   -1.57980394    1.51967204
 O          0.06979500   -2.19302511   -0.38752499
 H          0.33474901   -1.89061999   -1.26836801
 C         -2.88856006    0.37854901    0.47090599
 C         -2.89230990   -0.99272102    1.16293299
 C         -4.08161879   -1.82894003    0.65982699
 H         -1.95790195   -1.51262295    0.95038301
 H         -2.96058106   -0.85466999    2.24517989
 C         -5.39135504   -1.09797502    0.98641402
 C         -5.39703894    0.27206501    0.29401401
 H         -6.24763680   -1.69083500    0.64997703
 H         -5.48927021   -0.97075498    2.06915689
 C         -4.20522499    1.10688400    0.79509300
 H         -4.21177721    2.09070492    0.31769601
 H         -4.28554821    1.26339495    1.87450302
 C         -2.78310394    0.18468800   -1.04932797
 S         -1.51175106    1.44184601    1.10077000
 C         -3.96525407   -2.02215600   -0.85959703
 H         -4.06751204   -2.80260205    1.15808403
 C         -3.97330999   -0.65159100   -1.55199003
 H         -3.04313803   -2.55924392   -1.10000098
 H         -4.79964781   -2.62952709   -1.22405505
 H         -3.88360691   -0.78338498   -2.63407111
 C         -5.28324223    0.07974000   -1.22502196
 H         -2.77514410    1.16039205   -1.54220104
 H         -1.84404695   -0.31519800   -1.29384100
 H         -5.30552101    1.05137706   -1.72861600
 H         -6.32358122    0.80288202    0.53056902
 H         -6.13753700   -0.49638501   -1.59406900
 H         -0.32734099    0.61955702    0.61581999
 H          4.84813786   -2.51047206    0.01764100
 H          4.36365318   -3.12609911   -1.58104300
 H          3.87264705   -3.99791694   -0.10473400
 O          1.41334200    2.42871690   -2.28954196
 O          3.38793492    2.75749612   -1.29723406
 C          2.93818998    3.93978310   -3.32735300
 C          2.56053305    2.96462011   -2.22618294
 H          2.51339006    4.91764593   -3.08389711
 H          2.52244401    3.62580895   -4.28437996
 H          4.01907110    4.04681301   -3.40317702
