60
energy: -1740.964570232765
 C          2.57770610    1.15612304    2.24846697
 C          2.36334395    0.22870100    1.04950702
 H          1.62535203    1.59886503    2.55733705
 O          3.54371500    2.17542505    1.99599004
 H          2.96132898    0.56206697    3.07811594
 O          2.42744994   -1.13255501    1.51640296
 C          0.99861902    0.42049801    0.35097200
 H          3.17284894    0.39866301    0.33532599
 C          0.94191802   -0.54101199   -0.81493902
 O          0.72027302    1.75411904   -0.00704900
 H          0.23592600    0.10653800    1.07032096
 C          2.40535903   -2.10715389    0.48740199
 H          3.34512401    2.59575295    1.13586903
 O          1.64605296   -0.24190401   -1.93637598
 O          3.51454306   -2.01844192   -0.36168799
 H          1.55198097    2.23867297   -0.26906201
 H          1.95735002    0.71199203   -2.00347900
 C          4.74670410   -2.39315295    0.25751299
 C          1.12486804   -1.97737896   -0.37313899
 H          2.40478706   -3.06750798    1.01264095
 H          0.29356599   -2.25398302    0.27472699
 O          1.13358700   -2.90226603   -1.44437099
 H          1.85603702   -2.64700794   -2.03597808
 C         -2.97628307   -0.37572199   -0.56513900
 C         -4.40715981   -0.45685199   -1.12614000
 C         -5.42158222   -0.44632900    0.03077900
 H         -4.59228516    0.38972500   -1.79328096
 H         -4.52225685   -1.37167394   -1.71381104
 C         -5.16753817   -1.65504897    0.94284898
 C         -3.74376893   -1.57442904    1.51132202
 H         -5.89768410   -1.66914105    1.75786901
 H         -5.29257107   -2.58376503    0.37749800
 C         -2.73058796   -1.58155096    0.35403201
 H         -1.71636701   -1.53863096    0.75582600
 H         -2.81940794   -2.50661802   -0.22103600
 C         -2.83023405    0.92108500    0.24542101
 S         -1.82692802   -0.39743999   -2.01647401
 C         -5.26567411    0.84916502    0.83977997
 H         -6.43119097   -0.50339001   -0.38573200
 C         -3.84085989    0.92861003    1.40552998
 H         -5.46366119    1.71561694    0.20122500
 H         -5.99553394    0.87085700    1.65488899
 H         -3.71982503    1.85458398    1.97495306
 C         -3.58247709   -0.27844700    2.31868505
 H         -1.81412399    1.00392795    0.63374102
 H         -3.00105000    1.78154802   -0.40661600
 H         -2.57221103   -0.22185500    2.73616910
 H         -3.55191708   -2.43785906    2.15461302
 H         -4.28295279   -0.26926601    3.15955091
 H         -0.50186700   -0.47516599   -1.28863001
 H          4.67182684   -3.39887190    0.68258899
 H          5.02263117   -1.68752301    1.04391897
 H          5.50534391   -2.38253903   -0.52230698
 O          2.86032891    1.99502397   -2.47560501
 O          2.89468503    3.12396502   -0.54864401
 C          4.54894209    3.66071391   -2.17631412
 C          3.34500194    2.86625504   -1.70877600
 H          4.40816498    4.72079420   -1.96264505
 H          4.73386812    3.51497793   -3.23870206
 H          5.42588997    3.32743001   -1.61525297
