60
energy: -1740.965561259441
 C          4.11205912   -1.24541497    3.24651194
 C          3.39336896   -0.82579702    1.97154200
 H          3.65508389   -2.16218996    3.63856602
 O          4.09999514   -0.21080101    4.22996092
 H          5.15636301   -1.45706201    3.01401806
 O          3.67158294   -1.83355296    0.99362499
 C          1.86709297   -0.71451902    2.16007996
 H          3.78257608    0.14161800    1.63954604
 C          1.21275997   -0.40788001    0.83007503
 O          1.54943204    0.27322999    3.14176893
 H          1.50314605   -1.67311895    2.53836989
 C          3.14666796   -1.54967105   -0.29692000
 H          3.19435811    0.14164300    4.25068808
 O          1.25029898    0.91841400    0.57553297
 O          3.68362999   -0.38417199   -0.84782702
 H          1.47649002    1.11963701    2.67186308
 H          0.89278901    1.24498796   -0.33754101
 C          5.06605101   -0.49162599   -1.19304597
 C          1.61024594   -1.41467702   -0.23665200
 H          3.41605496   -2.42029500   -0.90346098
 H          1.25689304   -2.38681412    0.11781200
 O          1.04173696   -1.21726799   -1.50279295
 H          1.33216202   -0.37002999   -1.93547106
 C         -2.68073392   -0.46240601    0.51874101
 C         -2.41547298   -0.82334501   -0.94939899
 C         -3.42336011   -0.09621000   -1.85593200
 H         -1.39434099   -0.55204898   -1.21817803
 H         -2.50746799   -1.90526295   -1.07956004
 C         -4.84763479   -0.52892703   -1.48036504
 C         -5.12107801   -0.16745400   -0.01336700
 H         -5.57524014   -0.03072900   -2.12862611
 H         -4.96479607   -1.60715103   -1.62837195
 C         -4.11021805   -0.89193797    0.89243197
 H         -4.30845690   -0.65127999    1.94072402
 H         -4.21359491   -1.97458899    0.77693301
 C         -2.54531789    1.05639195    0.70486999
 S         -1.53271699   -1.37519598    1.64776897
 C         -3.28211808    1.42158198   -1.66859603
 H         -3.21896410   -0.36019099   -2.89765811
 C         -3.55587602    1.78289104   -0.20062800
 H         -2.27670097    1.74165106   -1.95200801
 H         -3.98949504    1.94564104   -2.31919193
 H         -3.44760609    2.86222696   -0.05977700
 C         -4.98034096    1.35000300    0.17632200
 H         -2.72653008    1.31398797    1.75177205
 H         -1.52916098    1.36846900    0.45886701
 H         -5.19268179    1.61925602    1.21592402
 H         -6.13138390   -0.48209900    0.26339200
 H         -5.70938921    1.87370503   -0.44989800
 H         -0.20826299   -0.81441599    1.14280403
 H          5.68753719   -0.60624897   -0.30220500
 H          5.33372593    0.42950001   -1.70654094
 H          5.22967577   -1.34392798   -1.85987902
 O          1.40442801    0.91143900   -3.04187012
 O          0.37400499    2.10458803   -1.45679700
 C          0.27901599    2.92046309   -3.68804789
 C          0.73249203    1.90185297   -2.65699100
 H          0.88235098    2.86214709   -4.59235716
 H          0.31311801    3.92911410   -3.27664495
 H         -0.76045001    2.70525098   -3.95066500
