60
energy: -1740.965422726783
 C          2.95240402   -0.37579101    3.03702211
 C          2.82711411   -0.70345700    1.55353105
 H          2.28430295   -1.03214800    3.60809708
 O          2.67492008    0.99537200    3.31034994
 H          3.97651505   -0.56989902    3.35821009
 O          3.32383204   -2.04039502    1.40493000
 C          1.36212397   -0.64999700    1.06406200
 H          3.43628097   -0.00492400    0.97195297
 C          1.29537296   -1.12589705   -0.37511000
 O          0.77067202    0.61447299    1.32194197
 H          0.80574697   -1.37703204    1.66298795
 C          3.34197092   -2.52254295    0.07293000
 H          1.84499395    1.19602096    2.84272599
 O          1.65197897   -0.29300201   -1.38510597
 O          4.18864822   -1.78244805   -0.75831300
 H          1.06354296    1.28594506    0.65135098
 H          1.53622496    0.69326299   -1.17630100
 C          5.57589912   -1.93342996   -0.44895500
 C          1.92076600   -2.50105000   -0.52995998
 H          3.69542503   -3.55528092    0.15465900
 H          1.33375394   -3.21901989    0.04444400
 O          1.92453098   -2.95480990   -1.86988699
 H          2.37062907   -2.27823210   -2.39967394
 C         -2.57419109   -0.65643102   -0.40493700
 C         -2.07797599    0.62453997   -1.08974504
 C         -3.00727892    1.79791296   -0.74030602
 H         -1.06353700    0.84431702   -0.75799602
 H         -2.04753494    0.47564301   -2.17202806
 C         -4.43032217    1.48331702   -1.22236204
 C         -4.93309021    0.20699400   -0.53272003
 H         -5.09724283    2.31959009   -0.99079698
 H         -4.43887281    1.35160804   -2.30897593
 C         -4.00210524   -0.96562397   -0.88756502
 H         -4.36246204   -1.88573802   -0.41835499
 H         -3.99984002   -1.12668800   -1.96914399
 C         -2.59119511   -0.44697201    1.11736000
 S         -1.51783097   -2.10217190   -0.86988097
 C         -3.01470399    2.00666404    0.78116602
 H         -2.63901806    2.70032597   -1.23539495
 C         -3.51854992    0.72950399    1.46982098
 H         -2.00797296    2.25250196    1.13059604
 H         -3.66310000    2.84993291    1.03863394
 H         -3.51793289    0.87024802    2.55461311
 C         -4.94212818    0.41646099    0.98826301
 H         -2.93961906   -1.35996902    1.60757196
 H         -1.57881296   -0.24310300    1.46848702
 H         -5.31953192   -0.48069999    1.48912299
 H         -5.94333315   -0.02788800   -0.87977701
 H         -5.61523104    1.24012303    1.24581897
 H         -0.14284401   -1.50011504   -0.58208001
 H          6.12865400   -1.40295506   -1.22142804
 H          5.85793686   -2.99090600   -0.45621201
 H          5.81066179   -1.50355804    0.52711099
 O          1.48771405    2.16311002   -0.69266498
 O          0.22960900    3.99491501   -0.49470201
 C          0.38078001    2.95429707   -2.65022302
 C          0.70103800    3.06645799   -1.16893804
 H         -0.00013900    1.95691097   -2.87449503
 H          1.29801702    3.08944511   -3.22820997
 H         -0.34909099    3.70175505   -2.95428109
