60
energy: -1740.965687268848
 C          3.11681008    0.11452800    2.88953400
 C          2.92669201   -0.41502100    1.47259700
 H          2.50212193   -0.47650099    3.57956600
 O          2.80616403    1.50195897    2.99189091
 H          4.16220808   -0.00622500    3.17626595
 O          3.45818901   -1.74670696    1.47824895
 C          1.43759704   -0.46471700    1.06156003
 H          3.48232102    0.21307901    0.76967800
 C          1.31174302   -1.13503003   -0.29385000
 O          0.82189798    0.80925101    1.17714906
 H          0.93531603   -1.11543906    1.78344905
 C          3.42194796   -2.40602708    0.22480001
 H          1.94869602    1.61465597    2.54473305
 O          1.58990097   -0.43966499   -1.42536902
 O          4.19838476   -1.76546097   -0.74607402
 H          1.06226206    1.38975000    0.40775600
 H          1.44872296    0.56148601   -1.34678102
 C          5.60457897   -1.84065104   -0.50123399
 C          1.97127795   -2.50280809   -0.29440001
 H          3.81286192   -3.40857410    0.42526200
 H          1.43795705   -3.14856911    0.40460801
 O          1.91974795   -3.13717389   -1.55773401
 H          2.32029295   -2.53167009   -2.19831491
 C         -2.56737709   -0.76704800   -0.18371201
 C         -2.50543308   -0.36625800    1.29844105
 C         -3.45234203    0.81918103    1.55622399
 H         -2.79220700   -1.21880996    1.91987097
 H         -1.48273003   -0.09051100    1.55878997
 C         -3.03373599    2.01199007    0.68365997
 C         -3.10469604    1.61173403   -0.79726601
 H         -3.69627309    2.86251211    0.87196898
 H         -2.01831794    2.32847309    0.93824601
 C         -2.15539908    0.42991900   -1.05223203
 H         -2.17941689    0.14564700   -2.10720801
 H         -1.13257694    0.71823299   -0.81110001
 C         -4.00842905   -1.17441702   -0.53713399
 S         -1.49061096   -2.23130107   -0.52697802
 C         -4.88896608    0.40781599    1.20481706
 H         -3.39525104    1.09680498    2.61274409
 C         -4.95858192    0.00718800   -0.27570999
 H         -5.20552397   -0.42853600    1.83610201
 H         -5.57502317    1.23847198    1.39754200
 H         -5.97794819   -0.29784599   -0.52885699
 C         -4.54087400    1.19886899   -1.14894199
 H         -4.06132078   -1.46982098   -1.58865798
 H         -4.30951786   -2.03782606    0.06322900
 H         -4.60647821    0.93007898   -2.20800710
 H         -2.79735994    2.45381808   -1.42293894
 H         -5.22250509    2.03904605   -0.98384398
 H         -0.12289100   -1.56863105   -0.37252599
 H          6.09712601   -1.40399098   -1.36748803
 H          5.91902304   -2.88267589   -0.38661501
 H          5.87865305   -1.27964306    0.39471701
 O          0.07539900    3.89284706   -1.00887704
 O          1.38114095    2.08484292   -1.06586695
 C          0.12947699    2.60114908   -3.02840710
 C          0.53549099    2.90101004   -1.59513998
 H          0.99518502    2.73782396   -3.68112803
 H         -0.67282897    3.25855207   -3.35718489
 H         -0.18549199    1.56086600   -3.11964607
