60
energy: -1740.9656967633
 C          3.20629191    0.48638999    2.69143796
 C          2.96826792   -0.22644100    1.36571896
 H          2.61112499   -0.00078600    3.47357607
 O          2.90448403    1.87747395    2.61383104
 H          4.25971603    0.39658001    2.95945501
 O          3.48803210   -1.55255699    1.53364396
 C          1.46780396   -0.31631401    1.00904500
 H          3.50744390    0.29503199    0.56895202
 C          1.30308294   -1.15050805   -0.24765600
 O          0.85602599    0.96565199    0.98233497
 H          0.98557699   -0.86802602    1.82136595
 C          3.41627407   -2.37113190    0.37896100
 H          2.03504205    1.93554795    2.17934895
 O          1.55775797   -0.60786402   -1.46411300
 O          4.18339396   -1.87781894   -0.68114400
 H          1.03883803    1.43096006    0.12681000
 H          1.43135703    0.40277600   -1.51215994
 C          5.59242105   -1.94496298   -0.45006201
 C          1.95208299   -2.51406789   -0.09161800
 H          3.79762697   -3.34427309    0.70441300
 H          1.43169498   -3.06154108    0.69543201
 O          1.85997295   -3.29884291   -1.26508105
 H          2.22034192   -2.76990104   -1.99161005
 C         -2.56939602   -0.76138997    0.04718700
 C         -4.02890301   -1.20138800   -0.16243300
 C         -4.96632385    0.00083100    0.04625100
 H         -4.15313387   -1.60244906   -1.17210805
 H         -4.28136015   -1.99879205    0.54246199
 C         -4.79833698    0.54256803    1.47292995
 C         -3.34380293    0.98621303    1.68203998
 H         -5.47732115    1.38569295    1.63418496
 H         -5.06139708   -0.23127601    2.20091105
 C         -2.40999603   -0.22006200    1.47567797
 H         -1.37403202    0.07627400    1.64227295
 H         -2.65435195   -1.00860298    2.19241810
 C         -2.22866893    0.34319201   -0.96358198
 S         -1.50748098   -2.25184989   -0.22444700
 C         -4.61858320    1.10376704   -0.96373701
 H         -5.99863100   -0.32720101   -0.10543100
 C         -3.16317606    1.54687703   -0.75609702
 H         -4.75783682    0.73574603   -1.98514402
 H         -5.29219723    1.95596802   -0.83027899
 H         -2.90582204    2.32460093   -1.47982395
 C         -2.99067712    2.08693910    0.67103499
 H         -1.19119298    0.65096402   -0.83433402
 H         -2.33258510   -0.04563400   -1.97968495
 H         -1.96045995    2.42068791    0.82413399
 H         -3.21575999    1.36523902    2.70013690
 H         -3.63905191    2.95571208    0.82194901
 H         -0.13533200   -1.57697201   -0.22897799
 H          6.07656193   -1.62952399   -1.37187195
 H          5.89290285   -2.96940708   -0.20929401
 H          5.89007521   -1.28058195    0.36390299
 O          0.16302601    2.08121610   -3.33781099
 O          1.32216299    1.93541598   -1.43341899
 C         -0.10006700    3.82108688   -1.70716202
 C          0.48432600    2.51757503   -2.22173095
 H         -0.53834897    3.66615605   -0.72007102
 H         -0.85442001    4.21239424   -2.38670206
 H          0.70081598    4.55567503   -1.59498501
