60
energy: -1740.966992895886
 C          3.75088310   -0.23548301    3.23294401
 C          3.05512500   -0.19493200    1.88881099
 H          3.29690909    0.49635699    3.89843106
 O          5.13467598    0.10422300    3.12885189
 H          3.63070512   -1.23216903    3.67261600
 O          3.67624688   -1.21276796    1.08684599
 C          1.54099000   -0.46610799    1.99995601
 H          3.20583701    0.78447002    1.42458403
 C          0.96434498   -0.56418002    0.60276699
 O          0.90081501    0.54622501    2.76214099
 H          1.39453495   -1.41315997    2.52477288
 C          3.20252895   -1.28967702   -0.25034401
 H          5.53772497   -0.51113701    2.50128889
 O          0.68589300    0.66367501    0.10351300
 O          3.42969990   -0.11835200   -0.97453499
 H          0.69322997    1.27007997    2.15165496
 H          0.66400301    0.71456200   -0.92065001
 C          4.80800390    0.13648300   -1.24751306
 C          1.68894196   -1.59060895   -0.24771500
 H          3.74965596   -2.12875509   -0.69218397
 H          1.58982205   -2.54744506    0.27135599
 O          1.17571998   -1.78159106   -1.54642200
 H          1.07952499   -0.91367900   -2.00521708
 C         -2.81104708   -0.78346801    0.57414502
 C         -4.22677183   -1.30639696    0.86934602
 C         -5.26974821   -0.31334299    0.32630801
 H         -4.36507416   -2.28597593    0.40309000
 H         -4.35659313   -1.43261504    1.94783294
 C         -5.08041096    1.05281103    1.00199902
 C         -3.66840196    1.57749295    0.70738202
 H         -5.82905912    1.75885403    0.62927699
 H         -5.22810507    0.96168703    2.08268189
 C         -2.63061810    0.58226198    1.25372398
 H         -1.62276495    0.95566398    1.07025301
 H         -2.75067496    0.47039101    2.33459091
 C         -2.63893890   -0.63010401   -0.94445199
 S         -1.61335397   -2.02411294    1.25087404
 C         -5.08946991   -0.15901400   -1.19057298
 H         -6.27017784   -0.69832200    0.54287702
 C         -3.67771292    0.36569199   -1.48781598
 H         -5.24195385   -1.12257397   -1.68685496
 H         -5.83922291    0.53301197   -1.58663094
 H         -3.54082990    0.46766400   -2.56816506
 C         -3.48210406    1.72935796   -0.80919701
 H         -1.63141799   -0.27995801   -1.17280102
 H         -2.76430511   -1.60370803   -1.42529297
 H         -2.48221493    2.11686993   -1.02732599
 H         -3.52454805    2.54522109    1.19652200
 H         -4.20388889    2.45108700   -1.20437598
 H         -0.35183901   -1.27620995    0.88413697
 H          4.84253979    1.01645803   -1.88615704
 H          5.25981617   -0.71298099   -1.76922405
 H          5.36313820    0.33216301   -0.32747000
 O          1.97164905    1.11669099   -4.19849777
 O          0.67076200    0.70086598   -2.43441296
 C          2.00023293    2.68141007   -2.38240504
 C          1.53206503    1.41295195   -3.07572293
 H          1.13974595    3.29669595   -2.11198306
 H          2.67359591    3.25348306   -3.01757002
 H          2.51410508    2.41314602   -1.45771205
