55
energy: -1282.384094553157
 C         -2.29916692    0.29413000    1.19551301
 C         -1.44052601   -0.94661701    0.95155197
 O         -0.57336497   -1.14621305    2.03516102
 C         -0.72113103   -0.84235799   -0.40393499
 O         -0.02001000   -1.94270301   -0.79747897
 C         -1.65966904   -0.41280499   -1.52584004
 C         -2.51807094    0.78782898   -1.13468099
 C         -3.61127210    1.08119595   -2.15579391
 O         -3.08547211    1.60706604   -3.37333703
 O         -3.18339300    0.51019400    0.10178000
 O         -0.93995798   -0.07032800   -2.71306992
 O         -1.45994198    1.38932598    1.42151999
 H         -1.88748801    1.67401302   -1.03036702
 H         -2.95541191    0.12990500    2.05523801
 H          0.10544800    0.06215400   -0.27418301
 H         -2.32712889   -1.26033604   -1.72917998
 C         -2.14019299    2.55687594    1.88691199
 H         -0.34887999   -2.11757112    2.10513997
 H         -4.19184303    0.16971800   -2.34046197
 H         -4.28061199    1.83658397   -1.74383700
 H         -0.49247101   -0.86444300   -3.03594089
 H          0.57444602   -2.37396693   -0.07208000
 H         -2.34473109    1.03595901   -3.63308191
 H         -2.71715403    2.32914591    2.78818703
 H         -2.80758190    2.95813608    1.12145495
 H         -1.37283599    3.29189301    2.12083411
 H         -2.14067197   -1.78792202    0.85502499
 C          3.61769700    1.05799198   -1.11392999
 C          2.27681708    0.26682800   -1.16249704
 C          3.40474892    2.33577991   -0.29280701
 C          3.04496503    1.94909501    1.14687502
 C          1.81296504    0.99931598    1.11587906
 N          1.31526196    0.93853199   -0.27213401
 H          3.93016791    1.30215800   -2.12959909
 H          1.84849703    0.25228700   -2.16179395
 H          4.31150198    2.94156098   -0.30366099
 H          3.88185906    1.44343805    1.62967396
 H          1.00031602    1.35098505    1.74340999
 H          4.39664888    0.44317201   -0.66167700
 H          2.39836407   -0.75738800   -0.81773603
 C          2.23700190    3.12646508   -0.89555401
 H          2.81177497    2.84200597    1.72832096
 H          2.07094908   -0.01399300    1.41273201
 C          0.94168699    2.26990199   -0.78335398
 H          2.43794703    3.36066198   -1.94173002
 H          2.09720802    4.06701803   -0.36202899
 H          0.46107599    2.13363695   -1.74896598
 H          0.22678900    2.69935489   -0.08711600
 O          0.13505200   -3.66449809    2.30991197
 O          1.59891498   -3.20024896    0.68495703
 C          2.06512189   -5.05967712    2.09818912
 C          1.20193899   -3.88508201    1.67615998
 H          1.81941700   -5.91524506    1.46299303
 H          1.87595201   -5.33638811    3.13399696
 H          3.12132692   -4.83311605    1.95483100
