55
energy: -1282.38054928683
 C         -2.47353411    1.23820901    0.80052000
 C         -1.59753501    0.34133399    1.67010403
 O         -1.05392694    1.05370796    2.76918101
 C         -0.53489602   -0.37877399    0.83363199
 O          0.20549300   -1.21131504    1.61988604
 C         -1.11247098   -1.01450002   -0.44184500
 C         -2.03143597   -0.04171900   -1.18087006
 C         -2.81536794   -0.70467502   -2.29960394
 O         -3.64778495   -1.76912904   -1.84080696
 O         -3.00810504    0.52043301   -0.29072800
 O         -0.10347400   -1.41099095   -1.35473096
 O         -1.67825198    2.32555699    0.40559599
 H         -1.43014896    0.75783098   -1.62110996
 H         -3.34225392    1.58779597    1.36529195
 H          0.24691799    0.47669399    0.41069201
 H         -1.70471096   -1.88126302   -0.12220400
 C         -2.40536094    3.40679908   -0.18554300
 H         -0.78482503    1.92751801    2.45125604
 H         -3.41203094    0.06043700   -2.80565405
 H         -2.12074399   -1.13587499   -3.01796293
 H          0.38865200   -2.16379905   -0.95600998
 H          0.59070599   -2.01362610    1.10143602
 H         -4.28373289   -1.39722300   -1.21474099
 H         -3.18757200    3.75575995    0.49425301
 H         -2.85370803    3.10317397   -1.13329005
 H         -1.68780994    4.20527697   -0.36065200
 H         -2.23942089   -0.43547601    2.09392405
 C          3.88987803    1.11697197   -0.18465699
 C          2.57212996    0.33665401    0.09177300
 C          3.52963805    2.52170610   -0.68534797
 C          2.80493593    3.27334595    0.43719000
 C          1.59059501    2.41756105    0.90113097
 N          1.44522297    1.27849305   -0.02379700
 H          4.47619581    0.57933497   -0.93014401
 H          2.40988803   -0.45568901   -0.63413101
 H          4.43357897    3.05925298   -0.97362697
 H          3.47321796    3.44358802    1.28164303
 H          0.66424799    2.98486996    0.87770700
 H          4.48505878    1.18303895    0.72684997
 H          2.55305409   -0.09214400    1.09176898
 C          2.58425689    2.39788890   -1.88695598
 H          2.45977402    4.24441910    0.08046300
 H          1.74047601    2.01292300    1.90030706
 C          1.25878704    1.73011005   -1.41520703
 H          3.04588509    1.79465604   -2.66970611
 H          2.36603308    3.38093710   -2.30482888
 H          1.00355995    0.86097002   -2.01516795
 H          0.42537099    2.42843795   -1.42482805
 O          1.10989296   -3.16843891    0.26990601
 O          0.91224003   -5.32598305   -0.26156300
 C         -0.12904800   -4.56640577    1.76026702
 C          0.68811899   -4.36684084    0.49247000
 H          0.41866499   -4.18478489    2.62388802
 H         -0.36803401   -5.61677599    1.91253197
 H         -1.05627406   -3.99322701    1.68636000
