55
energy: -1282.379290088041
 C         -2.60742402    1.41215706    0.65686798
 C         -1.64360094    0.73069900    1.62889898
 O         -1.00387299    1.68859398    2.45697188
 C         -0.65345800   -0.20533100    0.92170602
 O          0.07644400   -0.88755703    1.85261405
 C         -1.32793903   -1.06384802   -0.16341400
 C         -2.22974801   -0.20864500   -1.05096495
 C         -3.03857708   -1.04503202   -2.03758097
 O         -2.22625208   -1.59136200   -3.07359004
 O         -3.18348789    0.48726100   -0.24048001
 O         -0.41270500   -1.73741806   -1.00986505
 O         -1.88284004    2.42209911    0.00933400
 H         -1.61949801    0.50603098   -1.61073899
 H         -3.45235491    1.84064603    1.20371199
 H          0.17963800    0.50789601    0.30786401
 H         -1.96140206   -1.78883195    0.36895299
 C         -2.68315506    3.33238697   -0.74948800
 H         -0.80039501    2.45448589    1.89893794
 H         -3.56728506   -1.83756697   -1.49457896
 H         -3.78069997   -0.40261799   -2.51237202
 H          0.12233100   -2.37732100   -0.46740100
 H          0.49486601   -1.73596299    1.47699404
 H         -1.44706595   -1.97240901   -2.63286304
 H         -3.45550394    3.77911901   -0.11699600
 H         -3.15167189    2.82680893   -1.59576595
 H         -2.01241207    4.10746813   -1.11353695
 H         -2.23994398    0.09581700    2.28945708
 C          3.47180295    2.24377704    0.58259898
 C          2.20189404    1.45603395    1.01485097
 C          3.56285405    2.22590494   -0.94765699
 C          2.36391902    2.98766088   -1.52534103
 C          1.05671299    2.38951993   -0.93144101
 N          1.40513694    1.15943897   -0.19314399
 H          4.35363579    1.78232896    1.02752495
 H          2.45114708    0.50637001    1.48265505
 H          4.49471807    2.68927789   -1.27325404
 H          2.42223310    4.04683781   -1.27296102
 H          0.33801201    2.12654901   -1.70312202
 H          3.41182089    3.27088094    0.94514102
 H          1.58272004    2.03089690    1.69793403
 C          3.49795794    0.77146399   -1.42624104
 H          2.35303211    2.90251088   -2.61272001
 H          0.58003002    3.06873608   -0.23112901
 C          2.10243297    0.18856101   -1.06316698
 H          4.28378916    0.18282600   -0.95094800
 H          3.64246202    0.71413499   -2.50545311
 H          2.18302107   -0.75039899   -0.52183199
 H          1.48205996    0.03198800   -1.94071400
 O          0.51754397   -5.18926287    0.53151798
 O          1.00019801   -3.02280688    0.76976299
 C          0.85926098   -4.34061384    2.74936008
 C          0.77690399   -4.20368099    1.23789001
 H          0.12378100   -3.68194389    3.21690202
 H          1.84489000   -4.02087784    3.09376097
 H          0.67806798   -5.36646986    3.06344795
