55
energy: -1282.365827975531
 C         -1.98024404   -0.06497200    0.63314199
 C         -0.70151401    0.79469901    0.68266600
 O         -0.93997300    2.10608506    0.18150499
 C          0.33828399    0.10650400   -0.18848500
 O          0.87047899   -0.98761898    0.44027600
 C         -0.14769401   -0.11703600   -1.62071502
 C         -1.49561596   -0.87026697   -1.62746298
 C         -1.37903297   -2.39064693   -1.52880597
 O         -0.55486798   -2.88710594   -0.47271201
 O         -2.42174006   -0.27169499   -0.70442402
 O         -0.24968700    1.12169397   -2.31759906
 O         -2.96796203    0.65808803    1.29296601
 H         -1.94409001   -0.67660099   -2.60415602
 H         -1.79795301   -1.02347696    1.12944102
 H          1.26888597    0.92483801   -0.29186100
 H          0.58872902   -0.71517301   -2.15957904
 C         -4.13073778   -0.10584900    1.64247406
 H         -1.77716196    2.41817594    0.55638999
 H         -2.38194394   -2.80915999   -1.42782998
 H         -0.95226198   -2.73563194   -2.47438788
 H         -0.72617197    1.74221897   -1.73969495
 H          0.46028101   -1.83048201    0.04705500
 H         -1.14149106   -3.14690995    0.33146900
 H         -3.85639310   -0.93109202    2.30306602
 H         -4.62466383   -0.49421200    0.75095302
 H         -4.79975510    0.57405001    2.16493201
 H         -0.35336301    0.82625097    1.71858299
 C          4.29199219    2.53070092    1.08543003
 C          2.97259092    1.70623803    1.05954897
 C          4.67309904    2.89237690   -0.35570300
 C          3.57259488    3.77673292   -0.95693803
 C          2.21075392    3.03072906   -0.84894103
 N          2.47984600    1.67405701   -0.33186200
 H          5.08045387    1.94116604    1.55348802
 H          3.12631106    0.67767400    1.37904096
 H          5.62567186    3.42265296   -0.36728600
 H          3.51017690    4.72521591   -0.42309400
 H          1.71938598    2.92776608   -1.81282496
 H          4.15120602    3.43508911    1.67805600
 H          2.19760895    2.15703011    1.67614901
 C          4.78268099    1.60178804   -1.17813504
 H          3.79354310    3.99346995   -2.00257206
 H          1.52977395    3.51624703   -0.15430500
 C          3.38561296    0.91817302   -1.21792698
 H          5.51329279    0.92875302   -0.72866201
 H          5.10775423    1.82097900   -2.19521308
 H          3.42175102   -0.10930000   -0.86066902
 H          2.95349598    0.93221098   -2.21608090
 O         -1.89171696   -3.46898508    1.61420095
 O         -3.73368096   -3.90121388    0.41468501
 C         -3.86069489   -4.06029987    2.80454993
 C         -3.12276793   -3.79217911    1.49826503
 H         -4.92531919   -4.21201277    2.63508511
 H         -3.71387506   -3.22814608    3.49538493
 H         -3.44387889   -4.95243692    3.27836394
