55
energy: -1282.380079095153
 C         -2.27645707    0.19869800    1.09727705
 C         -1.34148598   -0.99079102    0.87143701
 O         -0.52559501   -1.14306998    2.01091599
 C         -0.56891400   -0.82674301   -0.44800201
 O          0.20427901   -1.88600099   -0.82923800
 C         -1.46755302   -0.41795400   -1.61560297
 C         -2.38822293    0.73336500   -1.23468602
 C         -3.43247008    1.02103698   -2.29449391
 O         -4.23010683    2.15545511   -1.95783997
 O         -3.10600805    0.38866299   -0.03925400
 O         -0.69866902   -0.02436800   -2.74607992
 O         -1.51063299    1.33030498    1.39266503
 H         -1.80065298    1.63743806   -1.06070697
 H         -2.96811700   -0.02054000    1.91620803
 H          0.19854000    0.11353900   -0.27189201
 H         -2.08426404   -1.29213798   -1.86426997
 C         -2.28225589    2.45510602    1.82035100
 H          0.06543900   -1.91968203    1.88577402
 H         -2.93844604    1.25304401   -3.23624396
 H         -4.05973101    0.13393800   -2.43702602
 H         -0.12758000   -0.76658398   -2.98739409
 H          0.64853400   -2.37752199   -0.03409300
 H         -4.65697479    1.97167003   -1.10992205
 H         -1.57202899    3.22538805    2.11332989
 H         -2.90734410    2.18598294    2.67701101
 H         -2.91534710    2.83101296    1.01406801
 H         -1.98821998   -1.86918795    0.73705697
 C          3.69844007    1.29708803   -0.92885298
 C          2.40297890    0.43828899   -1.03827703
 C          3.38386607    2.55740595   -0.11377400
 C          2.97901297    2.14102101    1.30505300
 C          1.78767502    1.14311802    1.21243298
 N          1.36753798    1.06158698   -0.19878700
 H          4.04198599    1.56231403   -1.92907906
 H          2.02568793    0.40013400   -2.05718088
 H          4.25943995    3.20673490   -0.07852200
 H          3.81462598    1.66280103    1.81708395
 H          0.93050098    1.46622801    1.79454899
 H          4.48711681    0.72076899   -0.44415599
 H          2.55883193   -0.57795101   -0.68301302
 C          2.20899796    3.29537797   -0.76721197
 H          2.68541908    3.01613903    1.88611996
 H          2.06889510    0.14154300    1.52810001
 C          0.95355201    2.37406397   -0.72586799
 H          2.44891500    3.54891205   -1.80052900
 H          1.99705994    4.22263908   -0.23425700
 H          0.53164202    2.21810389   -1.71552706
 H          0.18350001    2.76368594   -0.06564800
 O          1.20460498   -3.02277493    1.20046401
 O          0.99068201   -5.02375412    0.22604001
 C          1.45575500   -4.94306803    2.57875299
 C          1.19099200   -4.31205511    1.22257805
 H          0.73270100   -4.56925392    3.30659389
 H          2.44812703   -4.65041685    2.92879105
 H          1.39596701   -6.02837086    2.52736998
