55
energy: -1282.373971230298
 C         -2.47830510    0.12565500    0.68368298
 C         -1.01004004    0.55119002    0.67716801
 O         -0.89591402    1.97542500    0.57507801
 C         -0.33255699   -0.09505100   -0.54248399
 O         -0.08539900   -1.38819897   -0.42551100
 C         -1.05680096    0.29039499   -1.84523499
 C         -2.54746509   -0.07794400   -1.72980297
 C         -2.85379601   -1.57500196   -1.82720697
 O         -2.53650093   -2.09013891   -3.12380195
 O         -3.12310004    0.48523301   -0.53881502
 O         -0.90773600    1.67269194   -2.16968393
 O         -3.11393094    0.81437701    1.71425998
 H         -3.06627297    0.42295200   -2.54938412
 H         -2.53973389   -0.95528901    0.84852397
 H          0.78576303    0.49333301   -0.60692698
 H         -0.61365700   -0.27276200   -2.66657591
 C         -4.42756987    0.33315501    2.02322602
 H         -1.55860496    2.36659408    1.16303205
 H         -2.33327389   -2.14319491   -1.05683100
 H         -3.92799091   -1.70539904   -1.68914795
 H         -1.03775704    2.16850090   -1.34325695
 H          0.23362400   -1.96172500    0.92960298
 H         -1.60219300   -2.33191991   -3.13829207
 H         -4.75159502    0.86518902    2.91501689
 H         -4.39918518   -0.74105400    2.22620296
 H         -5.12099123    0.53267002    1.20497596
 H         -0.53864002    0.19941500    1.59782302
 C          3.88410902    2.10670495    0.84277099
 C          2.40271592    1.65108597    0.75191301
 C          4.62168694    1.62810600   -0.41514799
 C          3.97324204    2.27284098   -1.64839804
 C          2.46386504    1.90569901   -1.66839397
 N          2.17468596    0.98850602   -0.54878598
 H          4.35123491    1.69054198    1.73655498
 H          2.14786196    0.93650901    1.53342795
 H          5.67512894    1.90492296   -0.35939801
 H          4.09210920    3.35675812   -1.61286104
 H          2.17940497    1.40264106   -2.59072089
 H          3.93784809    3.19410396    0.91659999
 H          1.71276999    2.48849106    0.81934100
 C          4.48351812    0.10316700   -0.51580602
 H          4.46041298    1.91585696   -2.55724192
 H          1.83017004    2.78214788   -1.54860902
 C          2.97823596   -0.24516900   -0.66240001
 H          4.89567280   -0.36937401    0.37720999
 H          5.03849697   -0.27373600   -1.37607205
 H          2.64104509   -0.93444502    0.10976800
 H          2.75806904   -0.68771398   -1.63283396
 O          0.53633302   -2.30499697    1.86151195
 O         -1.58874798   -2.99043489    2.07264900
 C         -0.09725000   -3.28059506    3.92848206
 C         -0.46327999   -2.85670495    2.53073311
 H          0.98009503   -3.34309292    4.06408501
 H         -0.56580198   -4.23703718    4.15704679
 H         -0.49580601   -2.53891897    4.62536383
