55
energy: -1282.377581785831
 C         -2.69993901    0.11134300    0.69707400
 C         -1.18622696    0.33909801    0.76765501
 O         -0.90069300    1.69631803    1.12219501
 C         -0.59340602    0.04010000   -0.61540300
 O         -0.52595502   -1.25325799   -0.91130298
 C         -1.26429701    0.90692103   -1.69952202
 C         -2.79602408    0.72834998   -1.66287804
 C         -3.34476805   -0.50589800   -2.37701201
 O         -3.00002289   -1.77138102   -1.82390904
 O         -3.30582690    0.89677501   -0.32775199
 O         -0.92531699    2.28691912   -1.56314898
 O         -3.23245692    0.53046399    1.91533005
 H         -3.20543194    1.57981801   -2.21201491
 H         -2.90685892   -0.95003301    0.52714998
 H          0.57663399    0.46611601   -0.56599802
 H         -0.89914697    0.58705598   -2.67645407
 C         -4.60036421    0.15943401    2.12269211
 H         -1.52464604    1.95463598    1.81674004
 H         -4.43433619   -0.44636899   -2.35984397
 H         -3.02397203   -0.43763101   -3.42512298
 H         -0.98448801    2.49800611   -0.61527503
 H         -0.27729800   -2.35129404    0.14218099
 H         -2.03973508   -1.76030695   -1.61959696
 H         -4.72205305   -0.92067999    2.00178504
 H         -5.25843287    0.68187797    1.42698395
 H         -4.84775305    0.44368401    3.14313889
 H         -0.76312703   -0.34532601    1.50622499
 C          4.23440790   -0.19637300   -0.52828097
 C          2.71522093   -0.38298300   -0.78669101
 C          4.49058723    1.28202105   -0.20531000
 C          3.78632593    1.62289405    1.11538005
 C          2.29139400    1.21629596    0.99930602
 N          2.00722790    0.85523999   -0.40425101
 H          4.79951000   -0.50289398   -1.40943205
 H          2.50513697   -0.56544501   -1.83970702
 H          5.56175900    1.46815300   -0.12036100
 H          4.25115490    1.08976102    1.94583201
 H          1.62506998    2.02875304    1.27561104
 H          4.55483198   -0.82178903    0.30678901
 H          2.29850602   -1.19934797   -0.20087600
 C          3.89058995    2.14488411   -1.32457495
 H          3.87079000    2.69204998    1.31764996
 H          2.05450606    0.34865901    1.61039805
 C          2.34797692    1.96291006   -1.31730497
 H          4.30305481    1.84431195   -2.28932190
 H          4.13765001    3.19624305   -1.17126596
 H          1.96005702    1.72085202   -2.30471301
 H          1.83731699    2.85304499   -0.95706499
 O         -0.18107300   -3.21509695    0.69026202
 O          1.26256502   -2.03552794    1.93505096
 C          0.85678601   -4.34176683    2.48842192
 C          0.67329103   -3.07768393    1.69397402
 H         -0.10318300   -4.82316589    2.67455101
 H          1.36254203   -4.12659979    3.42629600
 H          1.46760499   -5.03601694    1.90568304
