34
energy: -953.840816382754
 C         -2.36834908   -0.57704300   -0.06386700
 C         -1.30041301   -1.19009697   -0.96347398
 O         -1.30879104   -2.60714793   -0.83266699
 C          0.07453600   -0.61160600   -0.65633601
 O          1.00109804   -1.20674598   -1.55194700
 C          0.02738800    0.91025698   -0.78213400
 C         -1.09457099    1.45940399    0.11155100
 C         -1.32290602    2.95095801   -0.03894300
 O         -1.69868898    3.32755899   -1.36531901
 O         -2.35342789    0.83379000   -0.21239300
 O          1.26573002    1.52184999   -0.46349800
 O         -2.14672494   -0.97679001    1.26081502
 H         -0.84193897    1.25920904    1.15864301
 H         -3.36919999   -0.88189298   -0.38578400
 H          0.34366399   -0.87037200    0.37342000
 H         -0.20372200    1.16196001   -1.82142305
 C         -3.19886398   -0.60731298    2.15356112
 H         -0.49625400   -2.91498995   -1.26206696
 H         -2.08822799    3.26481795    0.67839199
 H         -0.39798000    3.47834611    0.18727700
 H          1.77615905    0.96457601    0.18344399
 H          1.87597001   -1.28636301   -1.07905602
 H         -2.49137211    2.82518697   -1.59769905
 H         -2.97692609   -1.07495296    3.11068106
 H         -4.16278076   -0.97069401    1.78318000
 H         -3.24893308    0.47624999    2.28114390
 H         -1.56564796   -0.91368300   -1.99116099
 O          3.28961396   -1.44752300   -0.24436800
 O          2.84394789    0.18587700    1.22836602
 C          4.76128721   -1.17775404    1.61363006
 C          3.52913499   -0.78767598    0.80702400
 H          5.59923506   -0.55619401    1.28533900
 H          5.02717209   -2.22105002    1.44933295
 H          4.60416222   -0.99196398    2.67577291
