34
energy: -953.841706512323
 C         -1.78172302   -0.63500500   -0.14668401
 C         -0.52251399   -0.72160500   -1.01820505
 O          0.01338000   -2.02705407   -1.04731596
 C          0.48034000    0.34563300   -0.57662302
 O          1.62940502    0.38466799   -1.41038203
 C         -0.18714300    1.71266997   -0.62355798
 C         -1.44715905    1.71779799    0.23602000
 C         -2.24092293    3.00837493    0.16513699
 O         -2.68049502    3.32564807   -1.15671301
 O         -2.33555102    0.67522800   -0.20238900
 O          0.69535899    2.72369099   -0.13435499
 O         -1.45529795   -1.01555896    1.16190100
 H         -1.16407001    1.55146396    1.28099000
 H         -2.57058191   -1.28285396   -0.54232800
 H          0.78757697    0.14662500    0.45495701
 H         -0.46088800    1.93611300   -1.66104496
 C         -2.58914900   -1.20061505    2.00844407
 H          0.65696400   -2.15663409   -0.29998201
 H         -3.09842706    2.92724109    0.84137797
 H         -1.61701703    3.83753109    0.49551100
 H          1.55977499    2.53646398   -0.52953798
 H          2.28834510   -0.26496899   -1.03833401
 H         -3.18342805    2.56733394   -1.48403001
 H         -3.11208296   -0.25748301    2.18271899
 H         -2.21525908   -1.58773696    2.95428705
 H         -3.28402901   -1.92234504    1.56691206
 H         -0.83961201   -0.48783100   -2.03925490
 O          1.85274601   -2.39924407    0.86968303
 O          3.39339900   -1.25654900   -0.29195100
 C          4.13478994   -2.59027910    1.53876996
 C          3.04053712   -2.04780102    0.62822098
 H          3.84774399   -3.54467702    1.97833705
 H          4.29165411   -1.87700498    2.35303593
 H          5.07738590   -2.69305205    1.00193095
