34
energy: -953.841549151252
 C         -2.52349210   -0.51919699   -0.35630000
 C         -1.32485199   -1.36306703   -0.76972097
 O         -1.55872798   -2.72803402   -0.43863299
 C         -0.03847500   -0.84565002   -0.13892999
 O          1.01303196   -1.64859903   -0.65348101
 C          0.14928500    0.64188600   -0.45347399
 C         -1.12000096    1.41387105   -0.09033000
 C         -1.08492196    2.85456705   -0.55668998
 O         -2.24821210    3.57643104   -0.14556600
 O         -2.27602100    0.82986999   -0.72081000
 O          1.21391106    1.21359801    0.28723001
 O         -2.75562000   -0.67523199    1.01535594
 H         -1.25066197    1.38940704    0.99608099
 H         -3.41527390   -0.80353397   -0.92403603
 H         -0.10171700   -0.95886397    0.94961798
 H          0.33072400    0.74068201   -1.53250396
 C         -3.96894693   -0.06851000    1.46333504
 H         -0.71623099   -3.18466496   -0.57904702
 H         -0.22765499    3.35942292   -0.11679400
 H         -0.98496503    2.87859797   -1.64802897
 H          2.08675098    0.82257801    0.01299000
 H          1.82571602   -1.55318296   -0.08074300
 H         -3.01744604    3.08869410   -0.47054499
 H         -4.81748295   -0.42115399    0.86841297
 H         -3.91420007    1.02057600    1.40101194
 H         -4.10331488   -0.36605600    2.50130606
 H         -1.23494601   -1.25968695   -1.85760999
 O          3.70613599    0.40245199   -0.22473501
 O          3.24346495   -1.55476999    0.75814003
 C          5.52789497   -0.87645900    0.64490700
 C          4.04554510   -0.65315700    0.37970200
 H          6.05940485    0.07027800    0.73228002
 H          5.95058393   -1.42584705   -0.20110101
 H          5.67710114   -1.47640204    1.54198897
