34
energy: -953.841069909451
 C         -2.38018799   -0.72363901   -0.67124802
 C         -1.16519701   -1.59388399   -0.36646500
 O         -1.58784699   -2.89132404    0.03734400
 C         -0.27726400   -0.93598801    0.68994302
 O          0.82754701   -1.77750695    0.98902398
 C          0.12265300    0.44975701    0.19057500
 C         -1.13610804    1.26034904   -0.13636300
 C         -0.81253898    2.61358190   -0.75722599
 O         -0.19478001    3.49075603    0.18353400
 O         -1.94124305    0.55981100   -1.09738302
 O          0.90039903    1.16257501    1.14750004
 O         -3.19839811   -0.65945399    0.46290800
 H         -1.71013701    1.42025197    0.78254497
 H         -2.94336295   -1.11923206   -1.52262104
 H         -0.85077298   -0.82547498    1.61458504
 H          0.69989198    0.33521301   -0.73460799
 C         -4.45768404   -0.02767100    0.22634700
 H         -0.79517198   -3.33462691    0.37467900
 H         -0.16942599    2.46467495   -1.63342905
 H         -1.73774099    3.08651900   -1.08943701
 H          1.86554205    0.95524102    0.96702898
 H          1.61388004   -1.53145599    0.42697400
 H          0.44466701    2.93972111    0.67424500
 H         -4.33209085    1.03171098   -0.00764900
 H         -5.03688002   -0.13099299    1.14162505
 H         -4.98510695   -0.51871699   -0.59772497
 H         -0.59354901   -1.66684103   -1.29956603
 O          3.03841805   -1.26015902   -0.39279601
 O          3.41396594    0.74062997    0.54811400
 C          5.09987783   -0.16877300   -0.87519401
 C          3.74838805   -0.23906200   -0.17861301
 H          5.77437782    0.51640898   -0.36382699
 H          4.94414902    0.19915700   -1.89319098
 H          5.55111885   -1.15834296   -0.94547302
