34
energy: -953.840746235809
 C         -2.39742398   -0.69353902   -0.00482000
 C         -1.33811104   -1.40346897   -0.84498698
 O         -1.30833805   -2.79235005   -0.53505599
 C          0.02400700   -0.74569899   -0.65989602
 O          0.97053599   -1.44310498   -1.45194399
 C         -0.10286300    0.72302699   -1.05583596
 C         -1.21784604    1.38837898   -0.24168199
 C         -1.48036897    2.81701994   -0.69637400
 O         -0.39949101    3.68178010   -0.34715801
 O         -2.45384002    0.67439002   -0.40453801
 O          1.11524796    1.45099902   -0.91089100
 O         -2.10697603   -0.83831799    1.35900605
 H         -0.92294598    1.39863396    0.81328398
 H         -3.39224195   -1.09200704   -0.22052699
 H          0.30984700   -0.80203199    0.39539200
 H         -0.38173100    0.76981097   -2.11426091
 C         -3.21275902   -0.53960699    2.21777511
 H         -0.51361197   -3.14800310   -0.95923501
 H         -1.65689600    2.82257104   -1.77938902
 H         -2.38142991    3.19097805   -0.20851199
 H          1.68373895    1.06021094   -0.18685700
 H          1.84740198   -1.40029001   -0.98288900
 H          0.41416001    3.17887306   -0.53656799
 H         -2.87766910   -0.72222102    3.23674011
 H         -4.06420088   -1.18772900    1.99337804
 H         -3.51844692    0.50468999    2.12140703
 H         -1.63698995   -1.25953400   -1.89054704
 O          3.23575592   -1.42909706   -0.06443400
 O          2.76292992    0.52430499    0.94077802
 C          4.50017309   -0.81671602    1.86415505
 C          3.40936708   -0.55799800    0.83590198
 H          4.74426317   -1.87638605    1.91892397
 H          4.19534206   -0.44962999    2.84403205
 H          5.39753723   -0.26874501    1.56410396
