34
energy: -953.841945047616
 C         -1.74836302   -0.64522600   -0.20692000
 C         -0.48162401   -0.83568400   -1.05200696
 O          0.05594100   -2.13372302   -0.91930300
 C          0.52009100    0.27663100   -0.73481202
 O          1.67161202    0.22096600   -1.56272304
 C         -0.13994201    1.63411605   -0.93543297
 C         -1.40722501    1.73304105   -0.09509500
 C         -2.18793106    3.00648999   -0.34588400
 O         -3.33191705    3.10573506    0.50509399
 O         -2.29358602    0.65097898   -0.43023199
 O          0.74673200    2.68608093   -0.55196100
 O         -1.43617594   -0.86875600    1.14100802
 H         -1.14253104    1.67362595    0.96539497
 H         -2.53630996   -1.33310497   -0.53055900
 H          0.82343400    0.19511800    0.31370199
 H         -0.40485299    1.74453902   -1.99532700
 C         -2.57821989   -0.91070902    1.99618196
 H          0.69917601   -2.16844010   -0.16144900
 H         -1.56115603    3.87008595   -0.13010000
 H         -2.48917890    3.04658103   -1.39894497
 H          1.61459696    2.44589806   -0.90976202
 H          2.33505392   -0.37068200   -1.10933304
 H         -3.85734892    2.30439210    0.37428099
 H         -3.06802392    0.06410200    2.05125594
 H         -2.22046304   -1.19247794    2.98456001
 H         -3.29738688   -1.65591002    1.64086199
 H         -0.79258603   -0.72666699   -2.09559488
 O          3.44228101   -1.24781001   -0.24845500
 O          1.89945996   -2.26182604    1.02471900
 C          4.17901802   -2.45741606    1.67685103
 C          3.08984900   -1.95289099    0.73897099
 H          4.10503483   -1.92030394    2.62593102
 H          5.17321587   -2.30009198    1.26217198
 H          4.03123808   -3.51673293    1.89158797
