48
energy: -1054.026368574285
 C          2.68666506   -0.49589500    0.91885102
 C          1.15306699   -0.77367300    0.88470501
 O          0.80460697   -1.96173501    0.21296699
 C          0.54414803    0.47940800    0.25409299
 O          0.54013902    1.53972304    1.12585795
 C          1.09229803    0.76075202   -1.14019895
 C          2.63873196    0.75238401   -1.16473305
 C          3.27110291    2.10432410   -0.87047398
 O          2.78941607    2.66580606    0.36225200
 O          3.18167710   -0.33177599   -0.40539101
 O          0.56941801   -0.28660300   -1.96612096
 O          3.43818307   -1.46609795    1.56448197
 H          2.93325400    0.52729797   -2.19287109
 H          2.83995509    0.41481400    1.50230503
 H         -0.66021597    0.17998400    0.07340900
 H          0.73492903    1.73312700   -1.48998296
 C          3.53936791   -2.77340698    0.97155601
 H          0.85839701   -1.79352796   -0.74292600
 H          4.35519505    1.98036397   -0.82186902
 H          3.02858305    2.77054000   -1.70235705
 H          0.90817499   -0.18020900   -2.86533689
 H          1.18500495    2.22572207    0.82661903
 H          3.06253695    3.59133196    0.41203600
 H          3.67681098   -2.70906305   -0.10643500
 H          2.65701103   -3.37161899    1.19347203
 H          4.41880322   -3.22929502    1.42312503
 H          0.81342602   -0.86220700    1.91705501
 C         -4.11813307   -0.01894000    1.30929506
 C         -2.57088709    0.13133100    1.34847999
 C         -4.56744719   -0.09726700   -0.15538999
 C         -3.94098306   -1.33903694   -0.80248398
 C         -2.39462805   -1.25823796   -0.65588599
 N         -2.05947208    0.04118300   -0.03483100
 H         -4.58110285    0.83394802    1.80594003
 H         -2.26481891    1.09496498    1.75021994
 H         -5.65485907   -0.15755500   -0.20825900
 H         -4.30641079   -2.24511194   -0.31844500
 H         -1.88771605   -1.30482697   -1.61581004
 H         -4.41580582   -0.92116499    1.84436595
 H         -2.09734607   -0.65898502    1.92748594
 C         -4.07593393    1.15391803   -0.89485598
 H         -4.21135902   -1.39125395   -1.85771096
 H         -2.00012112   -2.03938293   -0.01131500
 C         -2.52134109    1.17383802   -0.86217397
 H         -4.46877909    2.05240989   -0.41810799
 H         -4.41901684    1.14558697   -1.92958200
 H         -2.13467407    2.08927298   -0.41799399
 H         -2.08972311    1.05045104   -1.85303104
