48
energy: -1054.042750142618
 C          2.26619411   -1.32702398    0.01577100
 C          1.59770501   -1.23683500    1.38952994
 O          0.88460302   -2.41804790    1.70285106
 C          0.74482602    0.02130600    1.48275900
 O          0.17901701    0.15116400    2.73060203
 C          1.46181297    1.26706696    0.99555898
 C          2.12469697    1.03156602   -0.36494201
 C          3.05162191    2.17041397   -0.75691700
 O          2.25828505    3.36120605   -0.86411297
 O          2.95275211   -0.13472600   -0.30638400
 O          0.50832099    2.32037091    0.97473800
 O          1.25253201   -1.64136899   -0.90030199
 H          1.35833502    0.91232401   -1.13329101
 H          3.03492188   -2.10398293    0.01969000
 H         -0.25077000   -0.12030600    0.68966198
 H          2.25600696    1.48418796    1.72583199
 C          1.72556496   -2.03822494   -2.19308305
 H          0.48791000   -2.74866009    0.88366097
 H          3.82595110    2.28955007    0.00569400
 H          3.52764893    1.93539906   -1.71234500
 H          0.93041199    3.06925511    0.51665598
 H         -0.09925500    1.07311296    2.86021304
 H          2.85003304    4.12361288   -0.89278603
 H          2.23805594   -1.21237504   -2.68871689
 H          0.84874600   -2.32327700   -2.76975203
 H          2.40293407   -2.89124393   -2.10304904
 H          2.38929510   -1.13807297    2.13795090
 C         -2.77809811    0.42965600   -1.98977804
 C         -1.38658702    0.46582699   -1.29495001
 C         -3.79281712   -0.21718800   -1.04063201
 C         -3.84761000    0.59003401    0.26137701
 C         -2.43342304    0.59588301    0.91043502
 N         -1.51356196   -0.16481100    0.03719200
 H         -2.71041393   -0.14071600   -2.91645694
 H         -0.63878500   -0.09118100   -1.85221303
 H         -4.77831602   -0.23879200   -1.50696003
 H         -4.16088390    1.61475801    0.06016500
 H         -2.43293405    0.11351800    1.88545597
 H         -3.08588099    1.44472694   -2.24213004
 H         -1.03586197    1.48284805   -1.14238000
 C         -3.33361411   -1.64339304   -0.72047299
 H         -4.56609583    0.14778601    0.95152700
 H         -2.03351212    1.60145903    1.00989604
 C         -1.92222404   -1.58287597   -0.06923800
 H         -3.28908300   -2.24185610   -1.63066196
 H         -4.03388119   -2.12317610   -0.03640900
 H         -1.17780101   -2.09315991   -0.67311400
 H         -1.92099595   -2.00152707    0.93469203
