48
energy: -1054.041251737147
 C          2.32708406   -1.31612098   -0.06107600
 C          1.55841899   -1.34553802    1.26677501
 O          0.81410199   -2.54076004    1.40295696
 C          0.71867198   -0.08565600    1.44522297
 O          0.10134400   -0.06685900    2.67505288
 C          1.49161303    1.17994702    1.12271404
 C          2.14674401    1.06691599   -0.25422299
 C          3.05823112    2.24240303   -0.56698298
 O          2.24843311    3.42701697   -0.60194403
 O          2.99480200   -0.08676400   -0.26512501
 O          0.60491598    2.27778101    1.24908102
 O          1.39697802   -1.60007000   -1.06530905
 H          1.37709606    0.98711097   -1.02769303
 H          3.12216091   -2.06657100   -0.04863300
 H         -0.26556799   -0.12948200    0.60487700
 H          2.29929805    1.25597596    1.86748195
 C          1.97080195   -1.89382303   -2.34272909
 H          0.44242600   -2.74910307    0.53219599
 H          3.82750010    2.32365298    0.20567600
 H          3.54126692    2.07614708   -1.53310597
 H          1.02709699    3.03480911    0.80321997
 H         -0.19518200    0.83970499    2.86298609
 H          2.82945991    4.19778490   -0.57845998
 H          1.14632905   -2.16705203   -2.99732900
 H          2.67121792   -2.72951508   -2.26144910
 H          2.48619103   -1.02134895   -2.74731493
 H          2.29533291   -1.34063804    2.07524490
 C         -2.83466196   -0.55852598   -2.07100606
 C         -1.43420696   -0.65083301   -1.40324795
 C         -3.86834002   -0.17548400   -1.00689197
 C         -3.53790092    1.22710896   -0.48685801
 C         -2.06376696    1.24562597    0.00367000
 N         -1.54238105   -0.14168900   -0.01716200
 H         -3.08165312   -1.52038503   -2.52111006
 H         -1.07626498   -1.67364800   -1.34772503
 H         -4.87151194   -0.19244801   -1.43393195
 H         -3.66389894    1.96818805   -1.27653801
 H         -1.97890902    1.62118697    1.01914203
 H         -2.81893611    0.18883599   -2.86521006
 H         -0.69329900   -0.05036700   -1.92338300
 C         -3.77598000   -1.16773701    0.15808700
 H         -4.20640421    1.49339998    0.33267000
 H         -1.42301404    1.84130299   -0.64007503
 C         -2.37490106   -1.03693998    0.81899703
 H         -3.92064595   -2.18699598   -0.20205700
 H         -4.54742718   -0.96178800    0.90016800
 H         -1.86801004   -1.99569595    0.88840300
 H         -2.43097711   -0.59710401    1.81175494
