48
energy: -1054.033422569344
 C          2.65556788   -1.25871599    0.41246599
 C          1.13808000   -1.26609004    0.79071802
 O          0.37434301   -2.19882607    0.04848600
 C          0.57785100    0.14205500    0.58279699
 O          0.54326802    0.82580400    1.77256095
 C          1.22496402    0.89939398   -0.57268697
 C          2.74489808    1.03385198   -0.28705400
 C          3.13576007    2.38872004    0.26075399
 O          2.35196900    2.71666193    1.42297995
 O          3.21027088    0.02507500    0.63054699
 O          0.95880997    0.26887900   -1.81560099
 O          2.78672791   -1.68362498   -0.91702002
 H          3.26198006    0.91809100   -1.24354696
 H          3.21300197   -1.92299402    1.07733297
 H         -0.59705400   -0.02873500    0.23507300
 H          0.78518599    1.89486301   -0.64093900
 C          4.14158010   -1.93290901   -1.31613004
 H          0.75318301   -3.07981992    0.16932300
 H          4.19572592    2.38086104    0.52493799
 H          2.97062397    3.13037109   -0.52258801
 H          1.48035598   -0.55221099   -1.84976494
 H          1.00553501    1.69631696    1.68451595
 H          2.26707697    3.67614794    1.48638105
 H          4.59948206   -2.66612792   -0.64756697
 H          4.73079014   -1.01451004   -1.30904698
 H          4.09648895   -2.33233500   -2.32646799
 H          1.07731402   -1.47781205    1.86030996
 C         -3.85483003   -0.54885000   -1.52866495
 C         -2.31199598   -0.58939499   -1.32144797
 C         -4.51108789    0.04156300   -0.27404901
 C         -3.97186708    1.45921397   -0.04601300
 C         -2.42519403    1.38369405    0.11576900
 N         -2.01858497   -0.02974000    0.01195000
 H         -4.22616577   -1.55779600   -1.71026599
 H         -1.91927803   -1.60216904   -1.34693003
 H         -5.59386396    0.07242600   -0.39967000
 H         -4.21968889    2.10138297   -0.89139199
 H         -2.09693694    1.75232601    1.08564401
 H         -4.09268904    0.05860100   -2.40237594
 H         -1.78143203    0.01160000   -2.05502701
 C         -4.14949703   -0.82856601    0.93627697
 H         -4.41610289    1.89512300    0.84910798
 H         -1.90761602    1.93549001   -0.66628897
 C         -2.60103512   -0.84819502    1.09336197
 H         -4.51633692   -1.84556901    0.79549098
 H         -4.60634089   -0.42838100    1.84166503
 H         -2.19046307   -1.85018802    1.00244498
 H         -2.28267407   -0.41823000    2.04111505
