48
energy: -1054.042990793444
 C          2.15094209   -1.31694698    0.64298999
 C          1.49562299   -0.60554999    1.82679701
 O          0.62298501   -1.42686605    2.58640003
 C          0.70379001    0.60388201    1.36335695
 O          0.11452100    1.29500198    2.39775395
 C          1.48534501    1.51544797    0.44074199
 C          2.22210097    0.70341802   -0.63733500
 C          3.25400996    1.53997898   -1.37663996
 O          2.56211495    2.60326290   -2.04793000
 O          2.95649695   -0.38117599   -0.06151100
 O          0.59206498    2.45693803   -0.13660499
 O          1.15753400   -1.88378406   -0.15362000
 H          1.49084306    0.32271901   -1.35449302
 H          2.85149193   -2.08038497    0.99377000
 H         -0.26901701    0.17567800    0.66611499
 H          2.23529506    2.02763510    1.06171298
 C          1.65632200   -2.75936699   -1.17018998
 H          1.13506806   -1.88492501    3.26513410
 H          3.97814107    1.94175696   -0.66298902
 H          3.77895498    0.90759802   -2.09718895
 H          1.08812106    2.89852905   -0.84913099
 H         -0.14898799    0.64862299    3.07608104
 H          3.20038605    3.29046202   -2.27661705
 H          2.23718190   -2.20929193   -1.91282105
 H          0.78767699   -3.20858192   -1.64643097
 H          2.27859998   -3.54111695   -0.72583997
 H          2.31089807   -0.23302799    2.45714307
 C         -3.79418492    0.81301701   -0.21299900
 C         -2.42038894    0.99409699    0.49542299
 C         -3.77846789   -0.50779700   -0.99113297
 C         -3.42304611   -1.64685094   -0.02893700
 C         -1.98810697   -1.40967500    0.52207601
 N         -1.52212000   -0.08940400    0.04549900
 H         -3.97287703    1.64856398   -0.89066398
 H         -1.94957805    1.94047701    0.24475300
 H         -4.75571108   -0.68827999   -1.44005704
 H         -4.13637304   -1.68109906    0.79526299
 H         -1.27941203   -2.15062094    0.16625500
 H         -4.58927393    0.81000400    0.53273201
 H         -2.50858808    0.91689801    1.57644296
 C         -2.70442891   -0.42889699   -2.08241796
 H         -3.45822096   -2.60745502   -0.54340303
 H         -1.96594501   -1.39576495    1.60845804
 C         -1.34311104   -0.06872900   -1.42171896
 H         -2.96076488    0.33246601   -2.81938505
 H         -2.62327194   -1.38496697   -2.60053992
 H         -1.00776994    0.92891800   -1.69192100
 H         -0.56828099   -0.78710699   -1.67147005
