48
energy: -1054.03327181233
 C          2.65422297   -0.66859800    0.82465202
 C          1.12283099   -0.82802099    0.89347398
 O          0.69358498   -1.98207903    0.18208100
 C          0.51746500    0.40737399    0.24880201
 O          0.55509698    1.47998297    1.10646701
 C          1.01816404    0.64185500   -1.17571294
 C          2.56260991    0.61191797   -1.24667799
 C          3.24627304    1.93867695   -0.95882899
 O          2.83104205    2.50046611    0.29867700
 O          3.09274602   -0.50359899   -0.52004701
 O          0.45988899   -0.33250800   -2.05197501
 O          3.20176005   -1.84857702    1.30545998
 H          2.80586410    0.38721800   -2.28668308
 H          2.96302795    0.18871801    1.43372595
 H         -0.69888502    0.14368200    0.09896900
 H          0.66901898    1.61326098   -1.52854800
 C          4.61329412   -1.78599298    1.55215704
 H          1.28112197   -2.71425104    0.42089900
 H          4.32741213    1.78203106   -0.95287699
 H          2.99340200    2.62397599   -1.77188396
 H          0.60389698   -1.20440197   -1.64572501
 H          1.22296500    2.13566709    0.78808099
 H          3.13936996    3.41487098    0.34911299
 H          4.84187984   -0.96006697    2.23135090
 H          5.16643906   -1.66019499    0.62064999
 H          4.88682890   -2.73001695    2.01773095
 H          0.82910597   -0.87707603    1.94526505
 C         -4.16055202    0.30755001    1.31910205
 C         -2.60592508    0.27060500    1.37496102
 C         -4.60868120    0.02467000   -0.12051500
 C         -4.03927803   -1.32880294   -0.56358898
 C         -2.48508501   -1.25704896   -0.53274602
 N         -2.10127211    0.06624000    0.00199600
 H         -4.51954889    1.28493702    1.64234304
 H         -2.18697691    1.20300698    1.74704802
 H         -5.69758177    0.00631700   -0.17375900
 H         -4.38487816   -2.11948109    0.10286500
 H         -2.04930496   -1.34695101   -1.52408600
 H         -4.56615305   -0.44159901    1.99920404
 H         -2.23785996   -0.55199099    1.98468399
 C         -4.05872583    1.12342703   -1.03849006
 H         -4.37153387   -1.57015896   -1.57341897
 H         -2.05012393   -2.01410604    0.11415600
 C         -2.50946307    1.16246200   -0.89924699
 H         -4.47445011    2.09331489   -0.76494598
 H         -4.32963419    0.92154300   -2.07510591
 H         -2.16315508    2.09531093   -0.45861599
 H         -2.00947404    1.01057506   -1.85275805
