48
energy: -1054.033227170425
 C          2.64006710   -0.68734300    0.80845898
 C          1.10779405   -0.84635401    0.84353000
 O          0.68714797   -1.97572803    0.08911100
 C          0.51609099    0.40850100    0.22502300
 O          0.53718501    1.45492601    1.11503303
 C          1.04359496    0.68747401   -1.18154299
 C          2.58948803    0.65569001   -1.22413695
 C          3.26976609    1.97190201   -0.88474399
 O          2.82281399    2.50364900    0.37478200
 O          3.10403109   -0.48266399   -0.52192497
 O          0.50223500   -0.25525299   -2.10133600
 O          3.17798710   -1.88110495    1.26509595
 H          2.85145307    0.46100199   -2.26557708
 H          2.93642211    0.15188600    1.44843602
 H         -0.69670200    0.14352000    0.05241800
 H          0.70240802    1.67095101   -1.50772703
 C          4.58359718   -1.82524598    1.54496396
 H          1.26462698   -2.71874499    0.31863299
 H          4.34991312    1.81121099   -0.85438401
 H          3.04041910    2.67832303   -1.68663394
 H          0.63939899   -1.14100003   -1.72414005
 H          1.20680904    2.12215090    0.82566100
 H          3.13049793    3.41604996    0.45587799
 H          4.84731579   -2.78160906    1.99059701
 H          4.79616880   -1.01814902    2.25137401
 H          5.15734482   -1.67391801    0.62986499
 H          0.79449803   -0.92640001    1.88786399
 C         -4.11684322   -0.17989799    1.36694300
 C         -2.56476212   -0.07450000    1.37928104
 C         -4.61133289    0.01055800   -0.07225400
 C         -4.04619980   -1.11625397   -0.94647098
 C         -2.49356008   -1.11000097   -0.83627498
 N         -2.10165811    0.05684000   -0.01783200
 H         -4.53829098    0.58380401    2.02057004
 H         -2.21908307    0.80093199    1.92492795
 H         -5.70121002   -0.00945600   -0.09688000
 H         -4.42947578   -2.08243299   -0.61796701
 H         -2.01234889   -1.01047003   -1.80491900
 H         -4.42344904   -1.15488398    1.74663103
 H         -2.09814692   -0.96269101    1.80042899
 C         -4.10131884    1.35754597   -0.60044700
 H         -4.34226894   -0.97223502   -1.98590899
 H         -2.11250496   -1.99900198   -0.34050500
 C         -2.54612708    1.32726097   -0.62525898
 H         -4.44660807    2.17009211    0.03931200
 H         -4.47589588    1.53978801   -1.60775697
 H         -2.11161494    2.14146495   -0.04848900
 H         -2.15393209    1.36052299   -1.63924897
