48
energy: -1054.032617161358
 C          2.56185102   -1.22960305    0.68770802
 C          1.14435804   -1.00485206    1.25442898
 O          0.31114101   -2.12224102    1.01826298
 C          0.56788898    0.33069301    0.73094201
 O          0.46500200    1.32569897    1.68291903
 C          1.24244106    0.90011799   -0.51054299
 C          2.77118206    0.96837401   -0.29168200
 C          3.23307109    2.30927896    0.27063599
 O          2.93955398    3.38390803   -0.61566699
 O          3.27034712   -0.02127900    0.63087201
 O          0.88191497    0.17040101   -1.67489696
 O          2.41606998   -1.84839594   -0.57211202
 H          3.23959494    0.81010997   -1.26886702
 H          3.13588309   -1.87813497    1.35292494
 H         -0.57563102    0.04859500    0.35808799
 H          0.88296002    1.91614997   -0.66848600
 C          3.62854791   -2.40603495   -1.10328102
 H          0.56682998   -2.50419807    0.16452500
 H          2.71139503    2.51937795    1.20373905
 H          4.30442715    2.24691796    0.48052800
 H          1.34741795   -0.68352002   -1.63878500
 H          0.26295501    0.94888401    2.55331993
 H          3.51639509    3.31197000   -1.38758397
 H          4.04397106   -3.13036394   -0.39937401
 H          4.35884714   -1.62076902   -1.30224800
 H          3.35805798   -2.90337706   -2.03127909
 H          1.24542105   -0.90983498    2.33713794
 C         -3.89880395    1.26846302   -0.73064399
 C         -2.37668610    1.29135299   -0.40286899
 C         -4.44571877   -0.13199800   -0.42826101
 C         -4.18421602   -0.46111599    1.04673004
 C         -2.64775300   -0.44470701    1.29753196
 N         -1.98107696   -0.05908800    0.03858600
 H         -4.05138206    1.51642299   -1.78127897
 H         -1.77787197    1.54545498   -1.27468598
 H         -5.51650095   -0.16428600   -0.63203901
 H         -4.67210579    0.27094501    1.69065797
 H         -2.26585603   -1.42146206    1.58201003
 H         -4.41414309    2.01767302   -0.12949900
 H         -2.14511704    1.98459005    0.40327999
 C         -3.71427894   -1.15501499   -1.30610895
 H         -4.58206701   -1.44533896    1.29492295
 H         -2.36893797    0.28236499    2.05821204
 C         -2.18483710   -1.06395698   -1.02254999
 H         -3.90170288   -0.95434898   -2.36119795
 H         -4.06821680   -2.16257691   -1.08652401
 H         -1.62244201   -0.73947102   -1.89331806
 H         -1.77947497   -2.00752592   -0.66852897
