48
energy: -1054.031739764239
 C          2.30650711   -1.20705497    0.12511501
 C          1.35148001   -0.76398599    1.23441505
 O          0.38992199   -1.75571501    1.55590105
 C          0.63900298    0.52890801    0.85480201
 O          0.35204101    1.24472594    2.00003791
 C          1.31444299    1.33259499   -0.27070001
 C          2.83878589    1.16277003   -0.20634700
 C          3.47955203    1.90499496    0.95996797
 O          3.24410701    3.29951000    0.76690602
 O          3.27102208   -0.21375100   -0.13894901
 O          0.79896301    1.01257503   -1.55290902
 O          1.55218899   -1.54798901   -1.01981795
 H          3.23663402    1.56879699   -1.13932395
 H          2.87625289   -2.08060694    0.45252499
 H         -0.46391100    0.17932400    0.36819899
 H          1.10324204    2.39048290   -0.11504300
 C          2.28825212   -2.29616499   -1.99826097
 H          0.81775397   -2.44161391    2.08523798
 H          3.06261396    1.56653297    1.91288996
 H          4.54987907    1.67994702    0.95493197
 H          0.99124902    0.06824200   -1.70622694
 H          0.03235000    2.13233495    1.77302206
 H          3.64122391    3.77873397    1.50451505
 H          2.66496801   -3.22118592   -1.55516803
 H          3.11982799   -1.71013403   -2.39284205
 H          1.59060502   -2.52959204   -2.79912901
 H          1.97209096   -0.54345798    2.10772300
 C         -3.29722095   -1.65635097   -1.19069302
 C         -1.81482100   -1.26228201   -0.92909801
 C         -4.20958281   -0.57961601   -0.58922499
 C         -3.79286909    0.79009098   -1.13915205
 C         -2.35093403    1.10634899   -0.64764601
 N         -1.81058800   -0.10996900   -0.00455300
 H         -3.50953794   -2.62567496   -0.73812902
 H         -1.24776006   -2.06424499   -0.46629101
 H         -5.24965286   -0.78504598   -0.84416997
 H         -3.81862593    0.78402698   -2.22934508
 H         -2.33941507    1.90104103    0.09632200
 H         -3.46146894   -1.74389803   -2.26483798
 H         -1.31127405   -0.95157403   -1.84066701
 C         -4.03190184   -0.57239199    0.93400902
 H         -4.47247124    1.56761599   -0.79023099
 H         -1.68496001    1.37342095   -1.46282804
 C         -2.51834702   -0.41724899    1.25619698
 H         -4.39622021   -1.50290799    1.36977804
 H         -4.59573793    0.24978600    1.37574005
 H         -2.08583593   -1.32924795    1.65541399
 H         -2.33068800    0.39790699    1.95231605
