48
energy: -1054.04338311929
 C          2.24504995   -1.34666705    0.34090799
 C          1.55565703   -0.98359102    1.65074503
 O          0.81836897   -2.05702901    2.20835304
 C          0.69369203    0.26477900    1.48639405
 O          0.07667100    0.65597498    2.65154505
 C          1.42593598    1.40871203    0.81441998
 C          2.15061212    0.91137600   -0.44770300
 C          3.10663390    1.94942701   -1.01220405
 O          2.32888103    3.08300900   -1.42419302
 O          2.96002412   -0.23388900   -0.15908000
 O          0.49511600    2.43826890    0.51424098
 O          1.24766195   -1.80218601   -0.52975500
 H          1.41062903    0.66121900   -1.21039999
 H          2.99975109   -2.12062502    0.50300300
 H         -0.27192199   -0.01499700    0.69180202
 H          2.18234110    1.76894295    1.52783597
 C          1.74090695   -2.43837690   -1.71493995
 H          0.37878901   -2.52852511    1.48516095
 H          3.83282590    2.23647308   -0.24712300
 H          3.63990307    1.51822305   -1.86325598
 H          0.94432902    3.04241109   -0.10439100
 H         -0.17321500   -0.14029001    3.15133095
 H          2.92174911    3.83507800   -1.54769099
 H          2.28998399   -1.72896504   -2.33601689
 H          0.87051201   -2.80132890   -2.25643396
 H          2.39000010   -3.27747798   -1.45213306
 H          2.33645391   -0.73612499    2.37577200
 C         -3.36771393   -1.67458200   -0.51420403
 C         -1.96388400   -1.54273999    0.14244500
 C         -3.75315189   -0.32611099   -1.13166296
 C         -2.67932892    0.07823900   -2.14764094
 C         -1.31952906    0.23544200   -1.40903497
 N         -1.51205599   -0.14058401    0.00871500
 H         -4.10024405   -1.97101402    0.23693600
 H         -1.99236703   -1.78080499    1.20369196
 H         -4.72256279   -0.40554699   -1.62467897
 H         -2.59008408   -0.68137997   -2.92470908
 H         -0.96134400    1.26093495   -1.42552102
 H         -3.33827591   -2.45023894   -1.27969205
 H         -1.22628498   -2.17210388   -0.34742400
 C         -3.81475806    0.73022401   -0.02217100
 H         -2.94299102    1.02079403   -2.62798500
 H         -0.55654198   -0.41757500   -1.82256699
 C         -2.43479109    0.79030597    0.69482398
 H         -4.59096384    0.47802600    0.70035303
 H         -4.05160093    1.70756400   -0.44361299
 H         -2.50296402    0.47623101    1.73362994
 H         -1.99018598    1.78038204    0.65296501
