53
energy: -1512.630470451978
 C         -3.79969311   -2.09551692   -0.00839700
 C         -3.30800295   -0.67120498   -0.19035700
 H         -4.76466894   -2.06776500    0.50809401
 O         -2.86999393   -2.91159201    0.70066202
 H         -3.94246101   -2.55435801   -0.98567897
 O         -3.12930894   -0.13928400    1.13161600
 C         -1.97521496   -0.58554798   -0.94799900
 H         -4.06912613   -0.10044500   -0.73114699
 C         -1.46751499    0.83777899   -0.91470498
 O         -2.19929910   -0.99128199   -2.29607606
 H         -1.25894594   -1.24226403   -0.45259100
 C         -2.73391390    1.21901405    1.20095694
 H         -2.72960401   -2.50722504    1.56753397
 O         -2.02883196    1.66729999   -1.84818697
 O         -3.67315507    2.08892608    0.64143199
 H         -1.34340096   -1.22735000   -2.68364406
 H         -2.29415011    1.10946703   -2.60189795
 C         -4.87566710    2.21256089    1.40667403
 C         -1.39129400    1.42966497    0.46739399
 H         -2.61100197    1.41958106    2.26963210
 H         -0.64512497    0.87258798    1.03524196
 O         -0.99642301    2.78681493    0.48521000
 H         -1.71729195    3.30387902    0.09766000
 C          2.32656789   -0.07860100   -0.84820700
 C          2.51436305    1.04510403    0.18209600
 C          3.50381994    0.59410900    1.27057803
 H          2.88578892    1.94310904   -0.31792599
 H          1.55307996    1.29767203    0.63356799
 C          2.95816493   -0.65910798    1.97045100
 C          2.78359294   -1.78557205    0.94158500
 H          3.64616990   -0.97662503    2.75996304
 H          1.99850702   -0.43424800    2.44626808
 C          1.79184103   -1.33454597   -0.14435700
 H          1.64217198   -2.13106799   -0.87744200
 H          0.82314599   -1.12221801    0.31318101
 C          3.68645000   -0.40347400   -1.49195397
 S          1.20722198    0.45905700   -2.22022891
 C          4.85840893    0.27364501    0.62255502
 H          3.62345195    1.40160096    1.99831498
 C          4.67952490   -0.85205299   -0.40602899
 H          5.26056004    1.16701400    0.13489300
 H          5.57836103   -0.03144100    1.38806200
 H          5.63950109   -1.07820904   -0.87832600
 C          4.13835716   -2.10619402    0.29528701
 H          3.56387711   -1.19466102   -2.23673010
 H          4.07066584    0.47980899   -2.00959110
 H          4.02679920   -2.92163205   -0.42620000
 H          2.38745093   -2.67809105    1.43401897
 H          4.84721088   -2.44163895    1.05841506
 H         -0.05257800    0.67652297   -1.41748405
 H         -5.42501688    1.26916099    1.42742896
 H         -5.47953415    2.97481108    0.91913199
 H         -4.64699411    2.52303290    2.43054199
