53
energy: -1512.628391482663
 C         -4.49615717   -1.60888100   -0.91803801
 C         -3.56940007   -0.48890999   -0.46331599
 H         -4.41912889   -2.45176697   -0.22040500
 O         -4.21989584   -2.01979399   -2.25394011
 H         -5.52382898   -1.24422204   -0.90033102
 O         -4.09029484   -0.01309700    0.78582102
 C         -2.12170506   -0.96975899   -0.23222500
 H         -3.57435012    0.31186599   -1.20829701
 C         -1.31311095    0.16995700    0.32143000
 O         -1.55225801   -1.52936304   -1.41200995
 H         -2.15543389   -1.77200603    0.50846303
 C         -3.42908406    1.11583197    1.31392598
 H         -3.26438308   -2.18328810   -2.30237794
 O         -0.86821300    1.01308000   -0.66076899
 O         -3.50759506    2.24139190    0.48230600
 H         -1.24917400   -0.80516601   -1.97930706
 H         -0.56607401    1.83682001   -0.24292600
 C         -4.81500101    2.82195902    0.40702400
 C         -1.92875600    0.83035803    1.53864598
 H         -3.92407393    1.31191897    2.26966190
 H         -1.85686398    0.13903201    2.38052106
 O         -1.22904503    2.01960301    1.87262797
 H         -1.73850596    2.76104593    1.50835705
 C          2.39340305   -0.67865300    0.58722699
 C          2.17728710   -1.04252696   -0.88919598
 C          3.39299011   -0.59257197   -1.71799600
 H          2.03602505   -2.12230992   -0.98158598
 H          1.27204001   -0.56003702   -1.26205802
 C          3.56866097    0.92706800   -1.58535004
 C          3.79567790    1.28944099   -0.11039700
 H          4.41989422    1.25926197   -2.18757010
 H          2.68080592    1.44193995   -1.96539998
 C          2.58174706    0.83995998    0.72133398
 H          2.72766304    1.09979606    1.77279699
 H          1.68374503    1.35703504    0.37840000
 C          3.65892911   -1.38889897    1.10047305
 S          0.98766202   -1.27330005    1.63430500
 C          4.65305281   -1.30205703   -1.20216501
 H          3.22451496   -0.85521799   -2.76623702
 C          4.87625694   -0.93997699    0.27326801
 H          4.54379606   -2.38570189   -1.31002104
 H          5.52222776   -1.00271797   -1.79590499
 H          5.76623011   -1.45226097    0.64919400
 C          5.05485010    0.57913798    0.40701401
 H          3.81472111   -1.15078104    2.15635300
 H          3.53211498   -2.47210407    1.02142799
 H          5.23034096    0.84553403    1.45393097
 H          3.91425896    2.37199998   -0.00974100
 H          5.93105221    0.90469199   -0.16218100
 H         -0.11467100   -0.52565598    0.93061000
 H         -4.71953392    3.72724009   -0.18803400
 H         -5.17796421    3.07297707    1.40762305
 H         -5.51514292    2.13768101   -0.07516000
