53
energy: -1512.628714908543
 C         -3.33795691   -2.21507311   -0.87229300
 C         -3.01207209   -0.78522998   -0.49273801
 H         -2.81844807   -2.47172689   -1.79360294
 O         -4.73180008   -2.39142394   -1.11896503
 H         -2.99465990   -2.88705993   -0.07719700
 O         -3.70417690   -0.53422999    0.74255699
 C         -1.50273502   -0.55568200   -0.28185201
 H         -3.37945390   -0.10575800   -1.26691306
 C         -1.29109800    0.83753401    0.25650299
 O         -0.77320999   -0.79326999   -1.47328699
 H         -1.15161502   -1.27752900    0.45904601
 C         -3.63353896    0.79576999    1.20222294
 H         -5.20233011   -2.14045000   -0.31245199
 O         -1.22065103    1.76590204   -0.74817097
 O         -4.18739510    1.72285199    0.30849400
 H         -0.86423802   -0.01678200   -2.04381299
 H         -1.30188406    2.64885306   -0.34929901
 C         -5.61235285    1.63628995    0.19174001
 C         -2.16902089    1.21230602    1.43735600
 H         -4.18570614    0.80032402    2.14685011
 H         -1.81958699    0.66394901    2.31449294
 O         -2.06950593    2.60316110    1.70924497
 H         -2.84660697    3.02777290    1.31199300
 C          2.51117611    0.17994100    0.64886498
 C          2.52210212    0.92350298   -0.69478798
 C          3.60071993    0.32075799   -1.61189103
 H          1.54190099    0.84690398   -1.16936600
 H          2.72303605    1.98430598   -0.52409500
 C          4.97602081    0.46346200   -0.94415301
 C          4.97245312   -0.28076401    0.39902699
 H          5.75381899    0.05395500   -1.59603095
 H          5.20849895    1.52120304   -0.78567398
 C          3.89224291    0.32244301    1.31424999
 H          3.89203691   -0.18872599    2.28108692
 H          4.10695124    1.37852299    1.49941397
 C          2.22041798   -1.30940104    0.41172099
 S          1.28090596    0.92496699    1.81338894
 C          3.29845095   -1.16565001   -1.85072696
 H          3.59547210    0.85685098   -2.56522393
 C          3.29816604   -1.91051197   -0.50746298
 H          2.32701707   -1.27716506   -2.34138298
 H          4.05116892   -1.59748900   -2.51759005
 H          3.07507896   -2.96862197   -0.67154503
 C          4.67286015   -1.76765096    0.16095901
 H          2.20744300   -1.83474100    1.37013400
 H          1.23644805   -1.42420495   -0.04446200
 H          4.68484592   -2.30934310    1.11192000
 H          5.94619417   -0.17195000    0.88480997
 H          5.44793177   -2.20820808   -0.47365099
 H          0.04661500    0.82464999    0.93792301
 H         -6.08173323    1.73384798    1.17473495
 H         -5.90623093    0.68771201   -0.26103500
 H         -5.92284393    2.45922303   -0.44792500
