53
energy: -1512.627739900591
 C         -3.62631702   -1.58497298   -1.31269896
 C         -3.15829206   -0.33776599   -0.57326299
 H         -3.29479098   -2.47543907   -0.76476699
 O         -3.16917706   -1.61170304   -2.66172791
 H         -4.71657181   -1.58859706   -1.34196603
 O         -3.85285711   -0.32969800    0.68077099
 C         -1.63964403   -0.35045099   -0.29956701
 H         -3.41644001    0.55079901   -1.15682399
 C         -1.27490604    0.82637799    0.56323999
 O         -0.89721298   -0.39236099   -1.51482403
 H         -1.40853202   -1.27088904    0.24129499
 C         -3.62980509    0.81504399    1.47417104
 H         -2.21952510   -1.41112196   -2.63834310
 O         -1.07705605    1.96265996   -0.17471500
 O         -4.04308081    2.00427604    0.85820901
 H         -0.86238098    0.50326997   -1.88237202
 H         -1.04475796    2.72016001    0.43338501
 C         -5.46499491    2.14162111    0.75285798
 C         -2.13333011    0.97810400    1.80593204
 H         -4.20228910    0.64034802    2.38987994
 H         -1.87269294    0.17994300    2.50384903
 O         -1.88627899    2.22402406    2.44012594
 H         -2.58149195    2.83488297    2.14740801
 C          2.43440509   -0.25443900    0.67446899
 C          3.83246112   -0.38708401    1.30481601
 C          4.85064316   -0.78934401    0.22318099
 H          4.12551308    0.56286401    1.75990796
 H          3.81177402   -1.14078796    2.09704590
 C          4.44110012   -2.13436198   -0.39373699
 C          3.04818392   -2.00353599   -1.02529502
 H          5.17130518   -2.43481302   -1.15157294
 H          4.43209314   -2.91293097    0.37552300
 C          2.03255701   -1.60308099    0.05874500
 H          1.03556299   -1.52691901   -0.37643999
 H          1.99858606   -2.36486793    0.84189999
 C          2.47746396    0.82098800   -0.42113599
 S          1.27847302    0.22874400    2.03672910
 C          4.88591814    0.28626999   -0.87195498
 H          5.83763790   -0.87945098    0.68541098
 C          3.49300194    0.41768900   -1.50439405
 H          5.19566822    1.24559402   -0.44583800
 H          5.62167311    0.01696100   -1.63601196
 H          3.51003909    1.18937004   -2.27930593
 C          3.07874298   -0.92699802   -2.11993504
 H          1.48729098    0.93947899   -0.86370599
 H          2.75736904    1.78140604    0.01943800
 H          2.09309006   -0.83800298   -2.58620095
 H          2.74691391   -2.96195412   -1.45771098
 H          3.78556490   -1.21201205   -2.90541291
 H          0.04048200    0.48574999    1.20196700
 H         -5.93044376    2.04715490    1.73796797
 H         -5.87775421    1.38840103    0.07953400
 H         -5.65292597    3.13443494    0.35060701
