53
energy: -1512.62932376757
 C         -4.92421103   -1.49611104    0.45865801
 C         -3.82046604   -0.52971298    0.04958300
 H         -4.61990023   -2.05115795    1.34711206
 O         -5.16560221   -2.46924996   -0.56882501
 H         -5.83443022   -0.93834299    0.68804502
 O         -3.68224406    0.40279701    1.12446797
 C         -2.47350097   -1.23961103   -0.18223800
 H         -4.11027718   -0.01061800   -0.86949903
 C         -1.39859998   -0.20874199   -0.42998600
 O         -2.51265693   -2.09245801   -1.32121599
 H         -2.22555494   -1.80314600    0.72536898
 C         -2.76399708    1.45352399    0.86767399
 H         -5.70565081   -2.05789900   -1.25749600
 O         -1.32497001    0.23973900   -1.72052801
 O         -3.12691593    2.23322296   -0.23324800
 H         -3.39142108   -2.51448202   -1.32765400
 H         -1.66437101   -0.47648999   -2.28776407
 C         -4.29646683    3.02895188   -0.01938300
 C         -1.34966695    0.88921702    0.60573900
 H         -2.76286602    2.05342102    1.78253603
 H         -1.01531696    0.45070201    1.54716206
 O         -0.44148600    1.92267501    0.28575701
 H         -0.77750701    2.37122703   -0.50321501
 C          2.37752390   -0.90201598    0.08274700
 C          2.39520097   -0.00782400   -1.16609299
 C          3.64739895    0.88654399   -1.14606702
 H          2.39296794   -0.63231999   -2.06316090
 H          1.49607694    0.60990602   -1.18917501
 C          3.62884498    1.76659703    0.11244200
 C          3.61985493    0.87290502    1.36146498
 H          4.50787497    2.41846395    0.12567200
 H          2.74553895    2.41190195    0.10606500
 C          2.36842299   -0.02216300    1.34212601
 H          2.34586906   -0.65749198    2.23132300
 H          1.46956503    0.59554499    1.35131800
 C          3.64075804   -1.78178203    0.09155200
 S          0.92908102   -2.05343699    0.05827500
 C          4.90415287    0.00445800   -1.13685906
 H          3.64583898    1.51844895   -2.03883195
 C          4.89332914   -0.88832498    0.11260600
 H          4.93335676   -0.61427301   -2.03910589
 H          5.80209589    0.62987500   -1.14122105
 H          5.78142405   -1.52646697    0.11920300
 C          4.87622404   -0.00919800    1.37135100
 H          3.63229489   -2.43553901    0.96836603
 H          3.65208912   -2.42031789   -0.79586601
 H          4.88589621   -0.63758302    2.26742005
 H          3.59795094    1.49442399    2.26118112
 H          5.77417898    0.61551100    1.40205002
 H         -0.17330800   -1.03752697   -0.18155000
 H         -5.18219805    2.40037489    0.09242400
 H         -4.40790081    3.66252708   -0.89656800
 H         -4.17739010    3.65168595    0.87233001
