53
energy: -1512.62962427803
 C         -4.92571783   -1.51075399   -0.07894100
 C         -3.82507992   -0.45799699   -0.05886700
 H         -4.59760189   -2.39478207    0.46940601
 O         -5.20720387   -1.94199300   -1.41885805
 H         -5.82359791   -1.11429095    0.39936301
 O         -3.62880111   -0.11485300    1.31557405
 C         -2.50163293   -0.98258197   -0.64674300
 H         -4.14286184    0.42021701   -0.62962902
 C         -1.41805995    0.04756600   -0.44216600
 O         -2.60002398   -1.22193396   -2.04603505
 H         -2.22881699   -1.89770997   -0.10732100
 C         -2.69124007    0.92753798    1.53100300
 H         -5.77221918   -1.28072095   -1.84128904
 O         -1.39555895    1.04718697   -1.37649703
 O         -3.06710005    2.12981796    0.92628300
 H         -3.47745109   -1.61729896   -2.20112300
 H         -1.76573300    0.67487901   -2.19734097
 C         -4.20668793    2.74934411    1.52983403
 C         -1.30147803    0.53478903    0.98111898
 H         -2.64383698    1.04005694    2.61833906
 H         -0.95050102   -0.29553199    1.59555900
 O         -0.37636200    1.58967197    1.14178598
 H         -0.72988999    2.35950708    0.67362398
 C          2.35069489   -0.84189302   -0.47834000
 C          3.59503889   -1.58463299   -0.99837500
 C          4.86610699   -0.84318900   -0.54914898
 H          3.60284901   -2.60861492   -0.61384302
 H          3.56062388   -1.64251304   -2.08962488
 C          4.85172510    0.58410698   -1.11559904
 C          3.61346507    1.32798505   -0.59584802
 H          5.76149321    1.11362302   -0.81605202
 H          4.83913994    0.55351502   -2.20961308
 C          2.34344101    0.58497500   -1.04611397
 H          1.45704806    1.11535597   -0.69619298
 H          2.29750609    0.54448003   -2.13755202
 C          2.40539289   -0.78585798    1.05582500
 S          0.87682599   -1.79892898   -1.05793703
 C          4.91182089   -0.78461498    0.98456001
 H          5.74039078   -1.38189805   -0.92509699
 C          3.67392993   -0.04027900    1.50522196
 H          4.94185400   -1.79731405    1.39882004
 H          5.82245207   -0.27304801    1.31128895
 H          3.69714904   -0.00370400    2.59811497
 C          3.65650010    1.38652694    0.93826401
 H          1.51813400   -0.27876401    1.43831396
 H          2.40435410   -1.80251098    1.45723498
 H          2.78701091    1.93106902    1.31774497
 H          3.59448504    2.34283900   -1.00329697
 H          4.54786301    1.93022895    1.26682997
 H         -0.20509499   -0.80096501   -0.68976200
 H         -4.04047108    2.89306998    2.60157990
 H         -5.10497189    2.14739490    1.37888205
 H         -4.33030796    3.71535397    1.04521894
