33
energy: -953.176485330171
 C         -2.20311904    0.42197901    0.61950201
 C         -2.40712404   -0.69196802   -0.43830001
 O         -3.08230710   -1.81116796    0.11670400
 C         -1.08933699   -1.02701795   -1.07439101
 O         -0.37604201   -1.98343503   -0.40427801
 C         -0.37209499    0.17763600   -1.62155104
 C         -0.17631100    1.16999102   -0.44880199
 C          0.49406901    2.49351597   -0.79846501
 O          1.89601505    2.38352799   -1.00195301
 O         -1.48404896    1.50833404    0.05842400
 O          0.82099199   -0.13086601   -2.32011390
 O         -1.55448198   -0.13991800    1.72693300
 H          0.39836401    0.68895900    0.34558299
 H         -3.16550207    0.85071301    0.91862702
 H         -1.03908801    0.67124403   -2.33475399
 C         -1.48600996    0.72805399    2.85934711
 H         -2.47910094   -2.21979904    0.75375903
 H          0.05824900    2.90597606   -1.71272695
 H          0.27561700    3.19121790    0.01983300
 H          1.48874998   -0.45091000   -1.66547501
 H          0.59924501   -1.82118702   -0.45248500
 H          2.26851201    1.68873298   -0.40768999
 H         -2.48517299    1.07861698    3.13624310
 H         -0.84495699    1.58885396    2.65802789
 H         -1.06449401    0.14593001    3.67638612
 H         -3.07002997   -0.26782599   -1.19456804
 O          2.99295592    0.51017898    0.66824198
 O          2.24941492   -1.31369102   -0.39512700
 C          3.03109193   -1.57714200    1.83646202
 C          2.74634004   -0.71801001    0.61736602
 H          2.08223701   -1.93729103    2.24199605
 H          3.55891395   -1.01733601    2.60599208
 H          3.61387801   -2.45362902    1.54876101
