33
energy: -953.176091404371
 C         -2.31864190    0.49712700    0.49835300
 C         -2.44846797   -0.63688302   -0.55176502
 O         -3.19763803   -1.72778201   -0.03730100
 C         -1.08542705   -1.01457000   -1.05526805
 O         -0.45499301   -1.96100998   -0.30419201
 C         -0.30966401    0.16437900   -1.56150103
 C         -0.18636701    1.18556201   -0.40339899
 C          0.57182300    2.46345305   -0.77431899
 O          1.83128405    2.57326388   -0.11299900
 O         -1.52263403    1.55842304   -0.00589100
 O          0.92524397   -0.17952500   -2.16136289
 O         -1.79584098   -0.05449900    1.67603600
 H          0.31976900    0.71986002    0.44553301
 H         -3.29531598    0.95170403    0.69321698
 H         -0.92116898    0.65420800   -2.32790709
 C         -1.83808506    0.83006603    2.79725099
 H         -2.66592503   -2.13124800    0.66323400
 H          0.70288700    2.51657605   -1.86012995
 H         -0.02284200    3.32257199   -0.46331400
 H          1.66893196   -0.15492401   -1.49992394
 H          0.53277397   -1.83042896   -0.22939099
 H          2.31138706    1.72701395   -0.21666200
 H         -2.85401106    1.20729601    2.95159793
 H         -1.15857601    1.67401302    2.66008997
 H         -1.52829301    0.25264999    3.66596007
 H         -3.02826595   -0.21439500   -1.37433100
 O          2.88954806    0.01756000   -0.40312201
 O          2.07268906   -1.88273394    0.44447100
 C          3.96815109   -0.89719999    1.51584899
 C          2.89901900   -0.93563199    0.43915901
 H          4.90848017   -0.52458203    1.11036897
 H          4.11234522   -1.87939000    1.96264398
 H          3.64289904   -0.20441800    2.29694510
