33
energy: -953.176503690544
 C         -1.13604200    0.33829501    0.85910499
 C         -1.33608401   -0.82564002   -0.13943100
 O         -1.27456999   -2.08764291    0.49664500
 C         -0.44579801   -0.61998397   -1.33384299
 O          0.87337500   -0.96109599   -1.31070006
 C         -0.67308003    0.71003997   -1.99319303
 C         -0.47772199    1.82316995   -0.93430197
 C         -0.82309997    3.21281505   -1.43191397
 O         -2.18559790    3.33116698   -1.84576297
 O         -1.33803105    1.57911503    0.19353700
 O          0.19518501    0.92205298   -3.10309100
 O          0.13490300    0.23743799    1.42794096
 H          0.56986701    1.81768000   -0.61510700
 H         -1.90819705    0.31021801    1.63491905
 H         -1.69722402    0.77488202   -2.36392903
 C          0.34138101    1.09399903    2.55015898
 H         -0.33411300   -2.36131191    0.62482399
 H         -0.59799498    3.93789411   -0.64257801
 H         -0.20895000    3.44573212   -2.30035710
 H          1.04491997    0.51622701   -2.87477803
 H          1.11262298   -1.61440098   -0.57514298
 H         -2.74089289    3.09292507   -1.09106898
 H          0.31725401    2.14593911    2.25611210
 H          1.32258105    0.85225201    2.95319510
 H         -0.42122000    0.91668701    3.31529808
 H         -2.36298299   -0.70569098   -0.49550101
 O          3.11297488   -1.48921394    1.40705705
 O          1.35252905   -2.61411810    0.61121398
 C          1.60246694   -2.49388003    2.97538590
 C          2.07721210   -2.15651703    1.57119405
 H          1.59850299   -3.57828808    3.10735989
 H          0.57778698   -2.14292598    3.10604596
 H          2.24352193   -2.04115200    3.72947693
