33
energy: -953.175394616274
 C         -2.62231803    0.41502899   -0.25333899
 C         -1.92061102   -0.94888800   -0.28490201
 O         -2.70979810   -1.93955302    0.37781900
 C         -0.52307999   -0.85552698    0.23812599
 O          0.12901300   -2.05124593    0.26150799
 C          0.27962700    0.37286401   -0.06246500
 C         -0.58720899    1.63274896   -0.03095300
 C          0.11435900    2.83430910   -0.65126300
 O          1.25472903    3.23521709    0.10738500
 O         -1.78759801    1.42990100   -0.78348303
 O          1.35717595    0.58854198    0.86299402
 O         -3.00231099    0.66688800    1.07317805
 H         -0.83367300    1.85922396    1.00996995
 H         -3.50210500    0.40588301   -0.90243697
 H          0.70800900    0.27237800   -1.07316506
 C         -3.90030789    1.76974797    1.22018504
 H         -2.87737703   -1.61299503    1.27424097
 H          0.39743999    2.59193492   -1.68277299
 H         -0.57707602    3.67771792   -0.67638898
 H          1.96395397   -0.19451000    0.80956501
 H          1.11023200   -1.92324996    0.38751501
 H          1.68527198    2.41841602    0.41909599
 H         -4.20061111    1.79260302    2.26555109
 H         -4.78185177    1.63172603    0.58698702
 H         -3.41256309    2.71149206    0.95984101
 H         -1.89670300   -1.27263105   -1.33429396
 O          3.13159108   -1.06684399   -1.55184495
 O          2.75898004   -1.68678999    0.56908101
 C          4.61153793   -2.66909289   -0.55495900
 C          3.41622090   -1.72730505   -0.53706801
 H          4.26313496   -3.69523501   -0.41627401
 H          5.27792120   -2.43604207    0.27769700
 H          5.15728712   -2.59685302   -1.49386406
