33
energy: -953.174007567857
 C         -2.55173898    0.44326100   -0.22324000
 C         -1.83268702   -0.88022000    0.12937900
 O         -1.80246794   -1.14923298    1.56108606
 C         -0.46188399   -0.82498503   -0.42842501
 O          0.10285100   -2.00433302   -0.77126598
 C          0.39224100    0.28917500    0.08307300
 C         -0.48550999    1.52007794    0.37741101
 C          0.22739200    2.83587408    0.13366300
 O          0.60431200    3.01303601   -1.23311305
 O         -1.65212500    1.52400005   -0.45052001
 O          1.01781094   -0.06252500    1.34171498
 O         -3.48971200    0.74953198    0.76918203
 H         -0.77727997    1.48523700    1.43194699
 H         -3.05994511    0.31621099   -1.18456101
 H          1.17153597    0.54284102   -0.64074302
 C         -4.40714502    1.77534604    0.38659999
 H         -0.91759300   -0.90954900    1.87971604
 H         -0.41563299    3.65865707    0.46202800
 H          1.14660501    2.86012197    0.71941799
 H          1.84275496   -0.58030200    1.13504303
 H          1.10532105   -1.91476297   -0.93196797
 H         -0.19884101    2.93900609   -1.76666605
 H         -4.92025614    1.50841701   -0.54336399
 H         -3.89913797    2.73282099    0.25403401
 H         -5.13567591    1.86040199    1.19067800
 H         -2.40832996   -1.69443703   -0.31211701
 O          3.27436399   -1.35726702    0.76733202
 O          2.62224388   -1.96201098   -1.29033196
 C          4.94100380   -2.11529803   -0.76011401
 C          3.50105309   -1.79443097   -0.39243099
 H          5.40304518   -1.20972002   -1.16320097
 H          4.98870420   -2.88791394   -1.52624202
 H          5.50869894   -2.41969800    0.11833400
