33
energy: -953.176092939753
 C         -2.51106405    0.57434100   -0.19119100
 C         -1.91154099   -0.82000703   -0.40038899
 O         -2.74772596   -1.82502306    0.18404900
 C         -0.49384400   -0.88392401    0.06736200
 O          0.07520400   -2.10670900   -0.09009700
 C          0.39717099    0.31837901   -0.04074300
 C         -0.38716999    1.62114096    0.09705100
 C          0.37895200    2.81335402   -0.43853500
 O         -0.30705300    4.04342604   -0.19519700
 O         -1.61479497    1.57071805   -0.64746302
 O          1.41655397    0.35256201    0.97038400
 O         -2.82695198    0.71075499    1.16880000
 H         -0.61270201    1.78112900    1.15413201
 H         -3.41107702    0.70007598   -0.79951698
 H          0.88688600    0.30528200   -1.02938700
 C         -3.61518693    1.86521196    1.46614301
 H         -2.81755900   -1.61719000    1.12748504
 H          1.34079695    2.88391709    0.06599300
 H          0.55528003    2.67818499   -1.51163495
 H          1.97525704   -0.44575799    0.85536402
 H          1.07104504   -2.08074307    0.08196400
 H         -1.18306506    3.96953511   -0.59765798
 H         -3.04740191    2.78310990    1.29882598
 H         -3.89042401    1.79547799    2.51646996
 H         -4.51922703    1.88079596    0.84989899
 H         -1.95353305   -1.02728796   -1.47829401
 O          3.16397691   -1.73569596   -1.69762897
 O          2.62936902   -2.05737996    0.45288399
 C          4.89349222   -2.40732598   -0.17871000
 C          3.46061492   -2.03382492   -0.52672100
 H          4.92281008   -3.43674207    0.18585700
 H          5.25542116   -1.76952398    0.62976801
 H          5.55217123   -2.31288409   -1.03943205
