33
energy: -953.177542705986
 C         -2.56293392    0.55578202   -0.11882800
 C         -1.94651103   -0.81756002   -0.36982900
 O         -2.75112009   -1.82355905    0.25612301
 C         -0.51744097   -0.86770600    0.05888700
 O          0.00628700   -2.11510110   -0.05807800
 C          0.36749801    0.31685001   -0.18353599
 C         -0.42061600    1.62257397   -0.04211000
 C          0.28865200    2.79241705   -0.69107801
 O         -0.37850001    4.03112698   -0.44077200
 O         -1.70914102    1.54239500   -0.67682701
 O          1.45934200    0.37336299    0.72987002
 O         -2.77717495    0.73899603    1.25089097
 H         -0.55642402    1.82631600    1.02315199
 H         -3.50654292    0.65828800   -0.66360098
 H          0.76686603    0.25817001   -1.21183801
 C         -3.52894402    1.91540694    1.55663800
 H         -2.25434399   -2.65152407    0.19917201
 H          1.29066098    2.88421798   -0.27580300
 H          0.37089500    2.61145210   -1.76892900
 H          2.25072002   -0.06670900    0.31060001
 H          1.01384306   -2.16364288    0.01719500
 H         -1.29028702    3.93521690   -0.74805999
 H         -2.96774411    2.82012606    1.31181097
 H         -3.72757697    1.89107704    2.62618899
 H         -4.47615623    1.91918004    1.00800896
 H         -1.99701297   -0.96977299   -1.46239996
 O          3.58121395   -0.76248401   -0.35149500
 O          2.52044797   -2.70344806    0.00064900
 C          4.82706785   -2.77599502   -0.61485797
 C          3.54187393   -2.02305794   -0.30564600
 H          4.62971306   -3.82091808   -0.84686798
 H          5.47916794   -2.72984195    0.26154101
 H          5.35726309   -2.30374193   -1.44238901
