33
energy: -953.17642445096
 C         -2.47403502    0.38614401   -0.35059100
 C         -1.84146500   -0.86771101    0.30004501
 O         -1.93099999   -0.81938499    1.75304496
 C         -0.42950100   -0.98006803   -0.11823100
 O          0.08243200   -2.22698402   -0.21190600
 C          0.47522700    0.20442601   -0.00239400
 C         -0.38712499    1.45949900    0.16696399
 C          0.34667799    2.72993708   -0.20162199
 O         -0.42179301    3.89899707    0.08994000
 O         -1.52837706    1.38079500   -0.69868499
 O          1.36103106    0.13606299    1.12677097
 O         -3.45334101    0.88027197    0.53100801
 H         -0.71543300    1.52347600    1.20836699
 H         -2.94315791    0.10632900   -1.29794300
 H          1.08259499    0.30163500   -0.91362798
 C         -4.30931282    1.87169898   -0.04071100
 H         -2.76080394   -0.36306900    1.96365595
 H          1.26285005    2.80020595    0.38298699
 H          0.61117500    2.69982004   -1.26484394
 H          2.16852999   -0.37646601    0.85200298
 H          1.05714095   -2.22123599   -0.49988499
 H         -1.26445305    3.81429005   -0.37695900
 H         -3.74968696    2.77559590   -0.28954601
 H         -5.06252623    2.10491896    0.70932502
 H         -4.79480410    1.48399901   -0.94162601
 H         -2.40267706   -1.74012804   -0.04694800
 O          3.56982589   -1.16326797    0.40182501
 O          2.50186205   -2.45026493   -1.09061003
 C          4.88914394   -2.45044708   -1.10542703
 C          3.54975104   -1.98970699   -0.54942298
 H          4.77830076   -3.32491302   -1.74371195
 H          5.58119822   -2.66781306   -0.29125699
 H          5.32279015   -1.63849902   -1.69505703
