33
energy: -953.176896097265
 C         -2.45717096    0.47541401    0.43308899
 C         -2.26987410   -0.72550797   -0.52540302
 O         -2.89091492   -1.89576805   -0.01576900
 C         -0.81175297   -0.91305703   -0.83535600
 O         -0.18053000   -1.70753396    0.06711600
 C         -0.17032000    0.34426701   -1.35404599
 C         -0.41102299    1.49519002   -0.34485799
 C          0.03272700    2.84963012   -0.88382202
 O          1.44700301    2.93176508   -1.04784203
 O         -1.82327795    1.62529004   -0.10666900
 O          1.19794703    0.22865400   -1.71327698
 O         -1.96340501    0.12921000    1.69492102
 H          0.10872300    1.27901900    0.59322602
 H         -3.51491594    0.75221699    0.50085902
 H         -0.70546502    0.62844002   -2.26632595
 C         -2.26584101    1.08333504    2.71366000
 H         -2.26674795   -2.29105592    0.61023003
 H         -0.48065501    3.03891611   -1.83489203
 H         -0.25550899    3.63128090   -0.17959100
 H          1.76653302   -0.01423200   -0.92401499
 H          0.79790598   -1.89577901   -0.11812600
 H          1.71193004    2.11368299   -1.50449896
 H         -3.34456396    1.26305306    2.76414800
 H         -1.75178099    2.03004289    2.53348589
 H         -1.92291200    0.65698099    3.65423107
 H         -2.79831505   -0.45368001   -1.44167399
 O          2.84235096   -0.22403100    0.29460201
 O          2.30964398   -2.37256694    0.01688400
 C          4.33824205   -1.86809003    1.17281997
 C          3.07619691   -1.45619905    0.43395099
 H          4.66759109   -2.85938501    0.86475700
 H          4.11546803   -1.90238500    2.24299598
 H          5.13499403   -1.14123094    1.01957297
