33
energy: -953.176786619117
 C         -2.45608497    0.46981499    0.43319300
 C         -2.26506996   -0.75489599   -0.49397200
 O         -2.87822700   -1.91476905    0.04752900
 C         -0.80756003   -0.94195902   -0.80924600
 O         -0.16594300   -1.70919502    0.10964200
 C         -0.17952099    0.30590701   -1.36359406
 C         -0.42193699    1.48298800   -0.38420299
 C          0.00836700    2.82461190   -0.96389002
 O          1.42178798    2.91559410   -1.12491298
 O         -1.83204305    1.60895205   -0.13772801
 O          1.18706596    0.19620900   -1.73097503
 O         -1.95334899    0.15880500    1.70145595
 H          0.11001700    1.29470003    0.55308902
 H         -3.51556396    0.73873597    0.49880001
 H         -0.72634298    0.56002003   -2.27788806
 C         -2.25206900    1.13907504    2.69695902
 H         -2.26441789   -2.27703691    0.70265198
 H         -0.50637197    2.97740889   -1.92088306
 H         -0.29278401    3.62415600   -0.28573799
 H          1.76527297   -0.03069500   -0.94522399
 H          0.81233799   -1.89394498   -0.07499200
 H          1.69549298    2.09146190   -1.56458604
 H         -1.91520905    0.73349601    3.64882398
 H         -3.32943296    1.32837701    2.74011397
 H         -1.73122299    2.07794595    2.49639392
 H         -2.80089808   -0.50868201   -1.41313303
 O          2.33187103   -2.35568190    0.05070400
 O          2.83610392   -0.19514300    0.29403800
 C          4.34252024   -1.80838501    1.21667504
 C          3.08408904   -1.42192698    0.45832500
 H          4.08885098   -1.90890706    2.27570295
 H          5.10801697   -1.03960204    1.12160003
 H          4.72484779   -2.76778007    0.87007302
