33
energy: -953.177876397497
 C         -2.53515792    0.83906698   -0.22853000
 C         -2.25160694   -0.48088101   -0.97998798
 O         -3.44034195   -1.23386204   -1.17458403
 C         -1.15339303   -1.23569500   -0.30102301
 O         -1.55219901   -2.12438011    0.66563702
 C          0.07711200   -0.43891501    0.03108200
 C         -0.32820499    0.87088400    0.73767400
 C          0.83915102    1.82430601    0.93612301
 O          1.53230202    2.13855791   -0.26178500
 O         -1.33179605    1.55769801   -0.03431200
 O          0.91706997   -1.19047499    0.89143503
 O         -3.18329191    0.52177000    0.97477800
 H         -0.73480201    0.61998802    1.72289002
 H         -3.16369104    1.49786496   -0.83633101
 H          0.59620500   -0.17018400   -0.89388400
 C         -3.73029399    1.65581799    1.65073705
 H         -3.78092408   -1.46913302   -0.30006799
 H          0.45109299    2.75553393    1.35713506
 H          1.51564503    1.37916899    1.67119396
 H          1.80114698   -1.32552695    0.43148699
 H         -0.74250799   -2.33906007    1.16666698
 H          2.26764607    1.48862100   -0.38622999
 H         -4.24946404    1.27803302    2.52953601
 H         -4.43934488    2.18294096    1.00423002
 H         -2.94242501    2.34585905    1.96099305
 H         -1.90381503   -0.18380199   -1.97189999
 O          3.67123604    0.57490700   -0.66852599
 O          3.21066999   -1.58606398   -0.26903999
 C          5.30443621   -1.03950405   -1.28039300
 C          3.95430899   -0.65323299   -0.68928403
 H          6.09599113   -0.45695201   -0.80613202
 H          5.31269407   -0.79271603   -2.34456205
 H          5.50920105   -2.10165095   -1.15969396
