33
energy: -953.176989836822
 C         -1.27389002    0.38698101    0.75326103
 C         -1.49219894   -0.85827500   -0.13716801
 O         -1.46022296   -2.05974889    0.60961503
 C         -0.58770698   -0.79023898   -1.33740997
 O          0.71364301   -1.18447697   -1.26896405
 C         -0.75013399    0.48439699   -2.11627889
 C         -0.52252603    1.67240703   -1.15180504
 C         -0.81334102    3.01357698   -1.78925502
 O         -0.54116797    4.10150719   -0.90222800
 O         -1.42209494    1.56373799   -0.03315700
 O          0.13976499    0.55851102   -3.22625399
 O         -0.01779800    0.30006701    1.35864794
 H          0.51281399    1.64692104   -0.79740900
 H         -2.06210995    0.45719799    1.50978994
 H         -1.76879096    0.55854899   -2.50570393
 C          0.19260500    1.25513399    2.39786291
 H         -0.52772897   -2.30880499    0.81370598
 H         -0.17082000    3.14887309   -2.65743208
 H         -1.85822904    3.03843999   -2.11983991
 H          0.96270299    0.12541801   -2.95379591
 H          0.92688203   -1.76004303   -0.46159601
 H         -1.04092896    3.94198489   -0.08978100
 H          1.16037202    1.02995396    2.84104490
 H         -0.58730102    1.17076194    3.16124105
 H          0.20223300    2.27396703    2.00358009
 H         -2.51386094   -0.75116402   -0.51208001
 O          1.75076497   -2.42767310    2.95759010
 O          1.16159403   -2.63265204    0.81346899
 C          3.02043796   -1.22488403    1.31905401
 C          1.90226996   -2.15837002    1.75301898
 H          3.63913202   -0.93052697    2.16444206
 H          2.58337808   -0.33555201    0.86200500
 H          3.63977408   -1.71233499    0.56341398
