27
energy: -725.498276922499
 C         -1.42960596    0.26173499   -0.13088600
 C         -0.80424702   -0.94960099   -0.81706101
 O         -0.46196899    1.29524696    0.18673000
 C         -2.20020700   -0.08676000    1.13680696
 H         -2.12268901    0.72756499   -0.83326900
 C          0.90205997    0.95454001    0.21777000
 C          1.13842797   -0.44372001    0.77827001
 H          1.37905800    1.70439804    0.85197198
 O          1.49478304    0.99840498   -1.06986296
 C          0.40953499   -1.51578403   -0.04059400
 H          0.73090500   -0.45462000    1.78846800
 O          2.52550697   -0.71134400    0.92035800
 O          0.03088000   -2.54054809    0.87668997
 H          1.10107696   -1.91733396   -0.78568101
 O         -0.45576000   -0.65281600   -2.16742802
 H         -1.56235695   -1.73164999   -0.87270701
 H         -3.00661492   -0.77602899    0.88705403
 O         -2.81077409    1.07078505    1.70301104
 H         -1.55235004   -0.57223397    1.86984706
 H         -2.11202097    1.71243894    1.87737000
 H          0.28570700   -0.02664100   -2.13955092
 H         -0.27549401   -3.30556893    0.37675500
 C          1.66136897    2.31986189   -1.59380305
 H          2.25743389    2.92466211   -0.90672600
 H          0.69518697    2.79840302   -1.75881898
 H          2.18477607    2.21835709   -2.54089189
 H          2.94271708   -0.59710401    0.05743300
