27
energy: -725.499817352992
 C         -1.01645696    0.29627100   -0.41946700
 C         -0.94865000   -1.22936797   -0.20511299
 O         -0.20026600    0.97736198    0.53988701
 C         -2.41633105    0.86239702   -0.27374601
 H         -0.66395700    0.52035302   -1.43024397
 C          1.18394899    0.71816802    0.44169801
 C          1.50525403   -0.72782099    0.01293700
 H          1.57733500    0.90872002    1.44203901
 O          1.81214499    1.56177902   -0.48916501
 C          0.38470399   -1.66328204    0.44012401
 H          2.44469595   -1.02039397    0.48848701
 O          1.61065996   -0.85856098   -1.40364301
 O          0.34183300   -1.64255798    1.86324799
 H          0.61208600   -2.67011905    0.07954200
 O         -1.17556000   -1.90394700   -1.44112599
 H         -1.75572598   -1.54296899    0.45656100
 H         -2.40114903    1.92497098   -0.53347498
 O         -2.95070696    0.67566001    1.03452206
 H         -3.08471489    0.34852701   -0.96402800
 H         -2.35338092    1.10049200    1.66060400
 H         -0.42705199   -1.70227695   -2.01810193
 H         -0.28780401   -2.30742693    2.16190290
 C          1.86942506    2.93390107   -0.10015700
 H          2.38197994    3.03634501    0.86016703
 H          0.86887097    3.36127996   -0.02503900
 H          2.43134499    3.45567298   -0.87060100
 H          1.99628305   -0.03911600   -1.74060094
