27
energy: -725.501152377123
 C         -1.07111001    0.12135600   -0.13698000
 C         -0.86178601   -1.40692306   -0.18002699
 O         -0.19182600    0.71223301    0.83610201
 C         -2.47904706    0.50853699    0.25646800
 H         -0.84544498    0.53804398   -1.12119699
 C          1.18184996    0.64666700    0.48858899
 C          1.56260300   -0.73362899   -0.09470600
 H          1.70829999    0.82064801    1.42945004
 O          1.54387498    1.61437500   -0.45346999
 C          0.53582901   -1.77316403    0.35789201
 H          2.55634403   -1.00027704    0.27231300
 O          1.55141604   -0.74010700   -1.52236903
 O          0.54640698   -1.91602504    1.77554703
 H          0.81021702   -2.74630189   -0.04741400
 O         -1.07655799   -1.90597999   -1.49685800
 H         -1.59697604   -1.90593696    0.45316100
 H         -3.18482399    0.02355800   -0.41736299
 O         -2.70644903    1.91078401    0.15380900
 H         -2.67673612    0.15604800    1.27477396
 H         -2.06499600    2.35758090    0.71794498
 H         -0.35433000   -1.56496203   -2.04308391
 H          0.18579900   -1.11075604    2.16671991
 C          1.46479595    2.96187592    0.01600100
 H          0.43242601    3.23917508    0.23100600
 H          1.85374999    3.59233689   -0.77915198
 H          2.07210803    3.08711195    0.91616100
 H          1.80319595    0.14455000   -1.81987500
